LAMMPS Description

512 atoms
0 bonds
0 angles
0 dihedrals
0 impropers

1 atom types

-4.0 4.0 xlo xhi
-4.0 4.0 ylo yhi
-4.0 4.0 zlo zhi

Masses

1 1 

Atoms

1 0 1 1 -3.99653 -4.08107 -4.04784
2 0 1 -1 -2.99137 -3.88809 -4.08207
3 0 1 1 -1.94944 -4.0684 -4.00131
4 0 1 -1 -1.09383 -4.10403 -4.02759
5 0 1 1 -0.0556925 -4.03299 -3.87914
6 0 1 -1 1.00885 -3.93358 -3.96338
7 0 1 1 2.06679 -3.92994 -3.91926
8 0 1 -1 2.91298 -3.96863 -4.04633
9 0 1 1 -4.03827 -2.8957 -3.99506
10 0 1 -1 -3.02471 -2.97331 -3.92864
11 0 1 1 -1.89211 -2.90752 -3.90836
12 0 1 -1 -0.95637 -2.9354 -3.97953
13 0 1 1 -0.0276917 -3.03609 -4.07494
14 0 1 -1 1.08173 -3.02102 -4.00912
15 0 1 1 2.1198 -3.09339 -4.07184
16 0 1 -1 3.11462 -2.94063 -4.02274
17 0 1 1 -3.92997 -1.93553 -3.88579
18 0 1 -1 -3.11798 -2.04532 -3.93576
19 0 1 1 -2.06425 -1.97761 -4.11415
20 0 1 -1 -0.885987 -2.04522 -4.11016
21 0 1 1 -0.0145306 -1.89624 -3.98194
22 0 1 -1 0.90471 -1.98255 -4.06199
23 0 1 1 1.99897 -2.06582 -4.00576
24 0 1 -1 2.97652 -1.90675 -4.01826
25 0 1 1 -4.03544 -1.02951 -4.11421
26 0 1 -1 -3.08485 -0.994411 -3.95085
27 0 1 1 -2.10073 -1.02479 -3.93164
28 0 1 -1 -1.0638 -1.0393 -4.0675
29 0 1 1 -0.0505348 -1.04886 -3.9032
30 0 1 -1 0.884163 -0.962214 -4.02535
31 0 1 1 2.04407 -0.941851 -3.89055
32 0 1 -1 2.93332 -0.915376 -3.88319
33 0 1 1 -3.93034 -0.0171247 -3.95648
34 0 1 -1 -2.92265 -0.0853107 -4.05503
35 0 1 1 -2.09117 0.0910482 -3.93745
36 0 1 -1 -1.073 -0.0900105 -4.05135
37 0 1 1 0.075705 -0.0702651 -3.98423
38 0 1 -1 1.0539 -0.0756134 -3.87754
39 0 1 1 1.93751 -0.017346 -3.93618
40 0 1 -1 3.09023 0.0987007 -3.88048
41 0 1 1 -4.02615 0.983051 -4.09321
42 0 1 -1 -3.01058 0.934458 -3.87849
43 0 1 1 -1.96179 1.02606 -4.06453
44 0 1 -1 -1.01128 1.07249 -4.1053
45 0 1 1 -0.00590152 0.913148 -4.06357
46 0 1 -1 1.11125 1.02851 -3.87795
47 0 1 1 1.99432 1.07493 -3.93895
48 0 1 -1 2.97018 0.994976 -3.99327
49 0 1 1 -4.10048 2.02356 -4.03821
50 0 1 -1 -3.08916 2.06988 -3.94725
51 0 1 1 -2.01346 2.05115 -4.10117
52 0 1 -1 -0.884293 2.01283 -3.93994
53 0 1 1 0.0197569 2.03447 -3.92958
54 0 1 -1 0.921976 1.95053 -4.0543
55 0 1 1 2.046 1.94823 -3.98365
56 0 1 -1 2.97961 1.95165 -4.01387
57 0 1 1 -3.98358 2.99698 -3.97334
58 0 1 -1 -3.02104 2.9076 -4.06101
59 0 1 1 -2.11607 3.11928 -4.09637
60 0 1 -1 -1.03048 3.03668 -4.03739
61 0 1 1 0.0132641 2.9646 -3.98364
62 0 1 -1 0.993908 2.91592 -3.97119
63 0 1 1 1.91804 3.01368 -4.05195
64 0 1 -1 3.09304 3.08377 -3.91377
65 0 1 1 -3.90112 -3.97631 -2.98986
66 0 1 -1 -3.08295 -3.96126 -2.95237
67 0 1 1 -2.05904 -4.09833 -2.92127
68 0 1 -1 -1.07716 -4.01918 -3.03704
69 0 1 1 0.0848071 -4.09067 -3.05933
70 0 1 -1 0.919313 -4.00502 -3.02996
71 0 1 1 2.00121 -3.99931 -3.03702
72 0 1 -1 3.0064 -4.09485 -2.99511
73 0 1 1 -3.97322 -2.94177 -2.98578
74 0 1 -1 -3.03897 -2.92451 -2.97725
75 0 1 1 -2.05827 -2.95733 -2.98696
76 0 1 -1 -0.927767 -2.90307 -2.9025
77 0 1 1 -0.107978 -2.92485 -2.89816
78 0 1 -1 1.03603 -3.08372 -3.04967
79 0 1 1 1.91657 -3.05371 -2.91451
80 0 1 -1 3.00908 -3.11591 -3.0732
81 0 1 1 -4.1197 -2.03547 -2.96963
82 0 1 -1 -2.99499 -1.98849 -3.08658
83 0 1 1 -1.91916 -2.11667 -3.11851
84 0 1 -1 -1.03047 -1.97092 -3.1199
85 0 1 1 0.0316439 -1.8962 -3.0313
86 0 1 -1 1.05736 -2.02604 -2.87943
87 0 1 1 2.02432 -2.09692 -3.0696
88 0 1 -1 3.0748 -1.90733 -2.94044
89 0 1 1 -4.1216 -0.940111 -3.02041
90 0 1 -1 -3.03449 -1.07403 -3.07921
91 0 1 1 -2.10593 -1.09611 -3.08522
92 0 1 -1 -0.927934 -1.11491 -2.92734
93 0 1 1 0.0247543 -1.02435 -3.06774
94 0 1 -1 0.920701 -0.971423 -3.04203
95 0 1 1 2.02629 -0.883972 -3.03048
96 0 1 -1 2.9211 -1.04998 -3.11146
97 0 1 1 -4.089 -0.122391 -2.90379
98 0 1 -1 -2.88549 0.031476 -2.88609
99 0 1 1 -1.96724 -0.115219 -3.03718
100 0 1 -1 -1.08842 -0.0984947 -3.07564
101 0 1 1 -0.104019 -0.118294 -2.88857
102 0 1 -1 1.10491 0.101997 -2.90859
103 0 1 1 1.91223 -0.0820528 -3.10795
104 0 1 -1 3.03776 0.0592174 -3.09939
105 0 1 1 -4.085 0.898492 -3.09457
106 0 1 -1 -3.11884 1.06558 -2.88576
107 0 1 1 -2.11803 1.03665 -3.09799
108 0 1 -1 -1.01802 0.952433 -3.12035
109 0 1 1 0.0963279 1.06447 -2.99762
110 0 1 -1 0.916444 1.06573 -2.90479
111 0 1 1 1.99989 1.09379 -2.9413
112 0 1 -1 2.93376 0.887902 -2.97363
113 0 1 1 -3.90601 2.001 -2.9554
114 0 1 -1 -2.87765 2.0262 -3.00091
115 0 1 1 -1.97757 2.09888 -3.11385
116 0 1 -1 -0.904283 1.90205 -2.99497
117 0 1 1 0.0197111 1.87748 -3.02823
118 0 1 -1 0.994282 1.92323 -2.99803
119 0 1 1 2.06875 1.9636 -2.95056
120 0 1 -1 3.1032 2.04274 -2.94856
121 0 1 1 -4.01828 2.88023 -3.07176
122 0 1 -1 -2.8881 3.00071 -3.07644
123 0 1 1 -1.96382 2.90699 -3.05877
124 0 1 -1 -1.04099 3.05092 -3.11547
125 0 1 1 0.113403 3.06369 -2.90641
126 0 1 -1 1.0335 2.93588 -2.96605
127 0 1 1 2.08762 2.93434 -2.94476
128 0 1 -1 2.9598 2.88755 -3.00375
129 0 1 1 -3.90063 -4.06443 -1.99312
130 0 1 -1 -3.00138 -3.91123 -2.03853
131 0 1 1 -2.09404 -4.07112 -2.09613
132 0 1 -1 -1.0342 -4.074 -2.01598
133 0 1 1 0.0820757 -3.99757 -1.92012
134 0 1 -1 0.97768 -3.90734 -1.94675
135 0 1 1 2.03589 -3.97964 -1.88669
136 0 1 -1 2.99028 -3.99472 -2.03531
137 0 1 1 -4.04355 -3.1228 -1.88045
138 0 1 -1 -3.01699 -3.08107 -2.08516
139 0 1 1 -1.99157 -2.98046 -2.04646
140 0 1 -1 -1.03955 -3.08555 -2.01586
141 0 1 1 -0.0643368 -3.07464 -1.94488
142 0 1 -1 0.93004 -3.07635 -2.01922
143 0 1 1 2.06856 -2.91736 -2.06373
144 0 1 -1 2.87635 -2.99645 -2.0385
145 0 1 1 -4.10441 -1.94876 -2.05991
146 0 1 -1 -3.03713 -1.99097 -1.90772
147 0 1 1 -2.04896 -2.10519 -2.01143
148 0 1 -1 -1.03084 -2.00882 -1.91786
149 0 1 1 -0.119011 -1.89905 -2.07559
150 0 1 -1 1.03334 -2.09268 -2.06602
151 0 1 1 2.02506 -1.96318 -1.91504
152 0 1 -1 3.08564 -2.08577 -2.0716
153 0 1 1 -3.96898 -1.01631 -1.9828
154 0 1 -1 -3.10256 -1.02977 -1.94398
155 0 1 1 -1.9973 -0.926271 -1.90415
156 0 1 -1 -1.09982 -0.959902 -1.9877
157 0 1 1 0.0570887 -1.0122 -1.91464
158 0 1 -1 1.06846 -1.02861 -1.9168
159 0 1 1 2.0318 -0.970027 -2.01493
160 0 1 -1 2.93113 -1.06354 -2.001
161 0 1 1 -3.96928 -0.106811 -2.09179
162 0 1 -1 -3.10952 0.054899 -1.91227
163 0 1 1 -1.88175 0.0396245 -1.88567
164 0 1 -1 -1.03724 0.0192152 -1.96469
165 0 1 1 0.114303 0.10678 -2.01623
166 0 1 -1 1.02182 0.0876377 -2.02303
167 0 1 1 1.94839 0.0860736 -1.96254
168 0 1 -1 3.09962 0.0236557 -2.02765
169 0 1 1 -4.0075 0.922388 -2.09338
170 0 1 -1 -3.008 1.04822 -1.87688
171 0 1 1 -1.9435 1.12007 -1.95781
172 0 1 -1 -0.945162 0.969371 -2.10387
173 0 1 1 -0.112838 0.881767 -1.98696
174 0 1 -1 1.12157 0.96036 -1.91412
175 0 1 1 1.90777 0.970294 -1.92771
176 0 1 -1 2.8987 1.06411 -1.99456
177 0 1 1 -4.08638 2.08819 -1.8866
178 0 1 -1 -3.03122 2.00353 -2.09477
179 0 1 1 -1.90772 2.08546 -1.96209
180 0 1 -1 -0.880516 2.11682 -1.99913
181 0 1 1 -0.0890339 1.94929 -1.99266
182 0 1 -1 1.09231 2.0586 -1.93467
183 0 1 1 1.94994 2.02198 -2.10312
184 0 1 -1 2.9726 1.90544 -1.97576
185 0 1 1 -3.99561 2.95066 -1.89799
186 0 1 -1 -2.95635 3.07142 -1.89346
187 0 1 1 -1.92796 2.9664 -1.98509
188 0 1 -1 -1.0299 3.06948 -1.93776
189 0 1 1 0.0321627 2.93678 -1.92146
190 0 1 -1 0.878891 2.99209 -2.0131
191 0 1 1 1.99949 2.95643 -2.06272
192 0 1 -1 2.98675 2.97279 -1.89638
193 0 1 1 -3.90473 -3.99923 -1.07277
194 0 1 -1 -2.89659 -4.07738 -1.08028
195 0 1 1 -1.93678 -3.9101 -0.919923
196 0 1 -1 -0.915605 -3.89301 -1.03621
197 0 1 1 0.112381 -4.0403 -0.953211
198 0 1 -1 1.08874 -4.01896 -0.961329
199 0 1 1 1.93693 -4.11459 -1.02638
200 0 1 -1 3.03114 -4.01937 -0.934015
201 0 1 1 -4.11206 -2.9832 -1.02234
202 0 1 -1 -3.1243 -2.98547 -0.882721
203 0 1 1 -1.90247 -2.91586 -0.93403
204 0 1 -1 -0.883011 -2.93546 -0.907006
205 0 1 1 0.0763688 -2.91268 -1.03493
206 0 1 -1 0.902924 -3.08046 -1.05598
207 0 1 1 2.01372 -2.94363 -1.03074
208 0 1 -1 2.99232 -3.01143 -0.951357
209 0 1 1 -3.95002 -2.11048 -1.07801
210 0 1 -1 -2.92552 -2.04836 -0.920167
211 0 1 1 -1.99224 -1.89777 -1.09321
212 0 1 -1 -1.11904 -1.9397 -1.10709
213 0 1 1 0.0535485 -1.97268 -1.01276
214 0 1 -1 0.956156 -1.96712 -0.900559
215 0 1 1 2.11104 -1.9395 -1.00643
216 0 1 -1 2.89429 -1.94937 -0.960063
217 0 1 1 -4.09665 -1.08378 -1.00087
218 0 1 -1 -2.98582 -1.06039 -0.956805
219 0 1 1 -1.89152 -0.985485 -0.891846
220 0 1 -1 -0.952006 -0.933145 -1.11723
221 0 1 1 0.113372 -0.970904 -0.919992
222 0 1 -1 0.935335 -1.12158 -1.0691
223 0 1 1 2.09233 -0.990551 -1.01139
224 0 1 -1 2.95803 -1.04151 -1.11584
225 0 1 1 -4.04336 0.0633145 -1.09811
226 0 1 -1 -3.05713 0.0831057 -0.935801
227 0 1 1 -2.02955 0.0697233 -0.939516
228 0 1 -1 -0.932665 0.0761093 -1.10278
229 0 1 1 0.0944205 0.00583285 -0.921419
230 0 1 -1 0.89695 -0.0596065 -1.0309
231 0 1 1 1.9996 -0.0691206 -1.1206
232 0 1 -1 2.87984 0.0784288 -0.994831
233 0 1 1 -3.96897 0.947817 -0.995418
234 0 1 -1 -2.90608 1.0274 -1.04474
235 0 1 1 -1.96118 1.02485 -1.05367
236 0 1 -1 -0.946535 1.10818 -0.955744
237 0 1 1 0.0272721 0.875313 -0.913919
238 0 1 -1 1.05325 1.06837 -1.10661
239 0 1 1 2.09347 0.882675 -0.971889
240 0 1 -1 3.07841 1.03188 -0.901276
241 0 1 1 -4.01999 2.03756 -1.06569
242 0 1 -1 -3.04349 1.94377 -1.06231
243 0 1 1 -1.90501 1.9938 -1.00872
244 0 1 -1 -1.10743 2.06386 -1.11792
245 0 1 1 -0.0989296 2.11951 -1.03331
246 0 1 -1 1.02707 2.00944 -0.955554
247 0 1 1 1.98692 2.03597 -0.968173
248 0 1 -1 2.91057 1.96994 -0.956317
249 0 1 1 -3.99713 3.07012 -1.01403
250 0 1 -1 -2.98508 3.10854 -0.986225
251 0 1 1 -1.9377 3.01477 -0.941271
252 0 1 -1 -0.932245 2.92095 -0.935427
253 0 1 1 0.023938 3.0629 -1.06738
254 0 1 -1 1.07549 3.03425 -1.09426
255 0 1 1 2.12288 2.97692 -0.885796
256 0 1 -1 3.10602 2.94151 -0.968135
257 0 1 1 -3.94808 -4.05951 -0.118934
258 0 1 -1 -3.04346 -3.92404 0.0576151
259 0 1 1 -2.09457 -3.91364 0.0883091
260 0 1 -1 -1.04709 -3.97571 -0.0444845
261 0 1 1 -0.0230071 -3.88049 -0.025296
262 0 1 -1 1.03225 -4.09331 0.0537545
263 0 1 1 2.09546 -4.02282 0.110817
264 0 1 -1 2.92047 -3.89482 -0.083327
265 0 1 1 -3.91654 -2.94243 0.120285
266 0 1 -1 -2.90141 -3.0552 0.124672
267 0 1 1 -1.8764 -3.07751 -0.121849
268 0 1 -1 -0.924486 -3.03048 -0.0383503
269 0 1 1 -0.087714 -2.99124 -0.113136
270 0 1 -1 0.968837 -3.05259 0.0768799
271 0 1 1 2.06506 -3.01679 0.0482231
272 0 1 -1 3.00785 -2.96508 0.0305071
273 0 1 1 -4.09747 -2.08066 -0.0703108
274 0 1 -1 -2.96635 -2.03126 -0.0199324
275 0 1 1 -1.91256 -2.074 -0.0391285
276 0 1 -1 -0.902009 -1.91931 0.084418
277 0 1 1 -0.0556772 -2.05995 -0.115761
278 0 1 -1 1.07437 -2.05904 -0.0368625
279 0 1 1 2.01712 -1.92579 0.0668775
280 0 1 -1 3.01102 -1.88049 -0.0291795
281 0 1 1 -3.89864 -1.09321 0.0508629
282 0 1 -1 -3.00607 -0.989605 0.0957175
283 0 1 1 -2.03032 -1.11896 0.0732559
284 0 1 -1 -0.982044 -1.01855 -0.0595683
285 0 1 1 -0.114509 -0.983966 0.0651456
286 0 1 -1 1.00425 -1.11312 -0.043363
287 0 1 1 2.11463 -1.11107 -0.0623379
288 0 1 -1 3.12144 -0.94433 0.105117
289 0 1 1 -3.90839 0.0466666 0.124611
290 0 1 -1 -3.06573 0.0892323 0.116089
291 0 1 1 -1.98043 0.114242 -0.0302324
292 0 1 -1 -0.912866 0.0101741 0.000812555
293 0 1 1 0.0751099 0.104743 -0.0333224
294 0 1 -1 0.947573 0.0943594 -0.117256
295 0 1 1 1.89448 0.0212142 -0.0776963
296 0 1 -1 3.10743 -0.0650388 0.0444693
297 0 1 1 -4.01967 0.992832 -0.0814348
298 0 1 -1 -2.91612 1.02314 0.042806
299 0 1 1 -2.06899 1.12453 0.0797716
300 0 1 -1 -1.05094 0.97871 0.0491081
301 0 1 1 0.052282 0.930345 -0.0358249
302 0 1 -1 0.913171 1.1207 -0.0579508
303 0 1 1 2.05746 0.884148 -0.0225799
304 0 1 -1 3.06122 0.924516 0.0859973
305 0 1 1 -3.96025 1.97655 -0.101562
306 0 1 -1 -3.03315 1.91381 -0.112053
307 0 1 1 -1.94551 1.93183 0.00849559
308 0 1 -1 -1.00444 2.02491 0.108123
309 0 1 1 0.0725387 1.88278 0.0143704
310 0 1 -1 0.984607 2.05359 -0.0269745
311 0 1 1 2.10207 2.04317 0.0524041
312 0 1 -1 3.11488 2.0414 0.123924
313 0 1 1 -3.97937 2.97539 -0.106918
314 0 1 -1 -3.10855 2.97581 0.0461631
315 0 1 1 -2.04723 2.89439 -0.118233
316 0 1 -1 -1.05812 3.05897 0.0853793
317 0 1 1 -0.0318728 3.04604 -0.00770974
318 0 1 -1 1.04371 2.88707 -0.0664808
319 0 1 1 2.05202 3.01778 -0.0189711
320 0 1 -1 3.12473 3.02076 0.0295228
321 0 1 1 -3.94036 -3.8991 1.10326
322 0 1 -1 -3.0919 -4.04059 0.885422
323 0 1 1 -1.94975 -4.00504 1.03451
324 0 1 -1 -0.879311 -3.94663 0.887406
325 0 1 1 0.102203 -4.05476 1.12193
326 0 1 -1 0.963038 -4.00878 1.10094
327 0 1 1 2.02758 -3.94795 0.966769
328 0 1 -1 3.07479 -3.97219 0.999691
329 0 1 1 -4.06978 -3.04491 0.954173
330 0 1 -1 -3.01388 -3.08273 1.05665
331 0 1 1 -2.12384 -2.90437 1.04294
332 0 1 -1 -1.00527 -3.07319 1.00272
333 0 1 1 -0.083449 -2.98755 1.00068
334 0 1 -1 1.01694 -3.0743 0.991161
335 0 1 1 1.91057 -2.89612 0.911943
336 0 1 -1 2.94881 -3.03657 1.12439
337 0 1 1 -4.11267 -2.04439 1.0418
338 0 1 -1 -3.09075 -1.93529 1.02199
339 0 1 1 -2.0985 -2.08849 1.10052
340 0 1 -1 -1.11168 -1.97841 1.05361
341 0 1 1 0.0733474 -1.97873 0.967471
342 0 1 -1 1.0115 -1.9031 0.996273
343 0 1 1 2.10316 -1.94696 1.09052
344 0 1 -1 3.07107 -1.88641 0.922716
345 0 1 1 -3.89401 -1.12028 0.922868
346 0 1 -1 -3.11008 -1.01616 1.05195
347 0 1 1 -2.03037 -1.04692 0.987758
348 0 1 -1 -1.06251 -1.07498 1.06661
349 0 1 1 -0.0596446 -1.00987 1.0647
350 0 1 -1 0.883126 -0.991016 0.990986
351 0 1 1 1.88043 -1.1221 0.914758
352 0 1 -1 2.91598 -1.10747 1.09786
353 0 1 1 -4.03657 -0.12307 0.99873
354 0 1 -1 -3.09773 -0.0785737 0.941126
355 0 1 1 -1.92922 -0.0626736 0.885628
356 0 1 -1 -0.991039 -0.1156 0.961802
357 0 1 1 -0.0798631 0.0543878 1.09386
358 0 1 -1 1.01596 0.108596 0.907838
359 0 1 1 2.08663 0.0509239 1.04555
360 0 1 -1 2.88635 -0.0703108 1.01066
361 0 1 1 -4.08491 0.950503 0.992794
362 0 1 -1 -3.01616 0.930467 0.942873
363 0 1 1 -2.0399 0.917642 1.03284
364 0 1 -1 -0.912172 1.06583 1.01079
365 0 1 1 0.122848 1.05713 1.01501
366 0 1 -1 1.028 0.973308 1.03117
367 0 1 1 1.92523 0.90294 1.09649
368 0 1 -1 3.06056 1.00034 1.12205
369 0 1 1 -4.03561 1.90761 1.02192
370 0 1 -1 -2.99383 2.10557 0.922533
371 0 1 1 -1.88028 1.88244 0.976741
372 0 1 -1 -1.116 1.90672 1.01346
373 0 1 1 -0.117134 2.10873 0.939913
374 0 1 -1 1.02596 2.09389 1.00975
375 0 1 1 2.09274 1.95618 0.931772
376 0 1 -1 2.90825 2.05 0.90413
377 0 1 1 -4.02387 3.0283 1.01136
378 0 1 -1 -3.08604 2.912 0.979587
379 0 1 1 -1.93573 3.07255 0.918123
380 0 1 -1 -1.09256 3.06212 0.943514
381 0 1 1 0.119133 3.11521 0.968944
382 0 1 -1 1.07896 3.00026 1.08832
383 0 1 1 2.00617 2.97597 1.05778
384 0 1 -1 2.975 3.06262 0.970119
385 0 1 1 -3.91622 -4.0468 1.95365
386 0 1 -1 -3.06681 -3.89136 2.0384
387 0 1 1 -2.00963 -3.98266 1.89965
388 0 1 -1 -0.987964 -4.05527 2.06269
389 0 1 1 0.039243 -3.97473 2.12177
390 0 1 -1 0.910859 -4.0188 2.05767
391 0 1 1 2.12442 -4.00869 2.1084
392 0 1 -1 3.0356 -3.97752 1.92292
393 0 1 1 -4.05959 -2.96007 2.01106
394 0 1 -1 -3.00222 -2.98554 1.90784
395 0 1 1 -1.9802 -2.9604 2.08813
396 0 1 -1 -1.09167 -2.89127 2.0038
397 0 1 1 -0.0626736 -2.95387 2.1117
398 0 1 -1 1.0614 -3.10213 1.92369
399 0 1 1 2.11324 -2.9659 1.92418
400 0 1 -1 2.96611 -3.03012 1.92256
401 0 1 1 -3.93653 -2.0617 1.96192
402 0 1 -1 -3.10488 -1.88104 2.05961
403 0 1 1 -1.96363 -2.0208 1.90042
404 0 1 -1 -1.10498 -2.02276 2.07247
405 0 1 1 0.0856311 -1.92191 1.96398
406 0 1 -1 1.01609 -1.90897 2.04503
407 0 1 1 2.10405 -1.90288 1.97515
408 0 1 -1 3.08472 -2.0995 1.97228
409 0 1 1 -3.97679 -1.11568 1.99067
410 0 1 -1 -3.11961 -0.963763 1.87527
411 0 1 1 -1.88338 -1.11458 1.97323
412 0 1 -1 -0.940935 -1.08633 2.01767
413 0 1 1 -0.0301561 -0.882126 1.97757
414 0 1 -1 1.05486 -1.11807 1.9895
415 0 1 1 2.04648 -0.939173 1.87741
416 0 1 -1 2.96128 -0.991367 1.92345
417 0 1 1 -4.02504 -0.037183 2.07162
418 0 1 -1 -2.99052 0.0528466 2.1121
419 0 1 1 -1.94577 -0.0718444 1.97654
420 0 1 -1 -1.05535 -0.11322 2.02093
421 0 1 1 0.118278 -0.119354 2.03091
422 0 1 -1 1.06942 -0.0828005 2.10933
423 0 1 1 1.90467 0.0888585 2.00353
424 0 1 -1 2.94566 0.0240295 1.94916
425 0 1 1 -3.96497 1.0889 1.94652
426 0 1 -1 -3.05919 1.0194 2.08761
427 0 1 1 -2.02185 1.02773 2.02088
428 0 1 -1 -1.05906 0.979396 1.9044
429 0 1 1 0.024617 0.8909 1.98125
430 0 1 -1 1.09938 1.10717 2.08507
431 0 1 1 1.94728 0.992275 1.93659
432 0 1 -1 2.91477 0.892624 1.98667
433 0 1 1 -3.99945 1.95817 1.94584
434 0 1 -1 -3.04419 2.08591 2.08295
435 0 1 1 -1.93541 1.95355 1.90823
436 0 1 -1 -1.11153 1.99102 2.05758
437 0 1 1 -0.0854022 2.04197 1.90788
438 0 1 -1 1.08717 1.90817 1.93833
439 0 1 1 1.88129 2.06259 2.01807
440 0 1 -1 2.98846 2.05091 1.89846
441 0 1 1 -4.08718 2.96568 1.90379
442 0 1 -1 -3.05182 3.03091 1.96492
443 0 1 1 -1.90743 2.89153 1.97686
444 0 1 -1 -1.09563 2.88404 2.08282
445 0 1 1 0.106338 3.12441 1.94903
446 0 1 -1 1.10165 2.94851 2.01319
447 0 1 1 2.07956 3.12349 1.98946
448 0 1 -1 2.96398 3.04411 2.1022
449 0 1 1 -4.03535 -3.9064 2.91712
450 0 1 -1 -3.11809 -4.06572 3.02678
451 0 1 1 -1.90654 -4.01984 3.03969
452 0 1 -1 -1.07374 -3.92613 2.90958
453 0 1 1 -0.0355884 -3.92702 2.98249
454 0 1 -1 1.03051 -4.0018 2.92639
455 0 1 1 1.90207 -3.94863 2.97758
456 0 1 -1 2.96939 -4.0119 2.91928
457 0 1 1 -3.99874 -2.98236 2.94768
458 0 1 -1 -3.03196 -3.05612 3.04789
459 0 1 1 -1.90597 -2.93456 2.91658
460 0 1 -1 -1.02498 -2.93733 2.87746
461 0 1 1 -0.0522515 -3.06744 2.90009
462 0 1 -1 0.991359 -2.9676 2.98629
463 0 1 1 2.11104 -2.9854 3.07371
464 0 1 -1 3.0856 -3.12492 2.89232
465 0 1 1 -3.88496 -2.06766 3.01867
466 0 1 -1 -2.93988 -2.11413 3.07194
467 0 1 1 -2.04654 -2.07554 3.06031
468 0 1 -1 -1.11384 -2.08314 3.03797
469 0 1 1 0.00118641 -1.95733 2.97581
470 0 1 -1 0.961673 -2.11134 3.0806
471 0 1 1 1.87962 -2.06849 3.00641
472 0 1 -1 2.93718 -2.02705 3.07118
473 0 1 1 -3.91602 -0.905068 3.00472
474 0 1 -1 -2.98146 -1.03116 2.90407
475 0 1 1 -1.95606 -1.04214 3.02626
476 0 1 -1 -0.98991 -0.911477 2.92493
477 0 1 1 0.0408605 -1.05922 3.07772
478 0 1 -1 0.877358 -0.982067 3.03274
479 0 1 1 1.89451 -1.10284 2.90814
480 0 1 -1 3.00196 -0.931475 3.0179
481 0 1 1 -4.09599 0.0880116 3.01564
482 0 1 -1 -2.95651 0.0816256 3.07672
483 0 1 1 -1.97489 0.10089 3.03595
484 0 1 -1 -1.119 0.080298 3.0439
485 0 1 1 0.0332919 -0.0155988 2.97365
486 0 1 -1 0.950205 0.0792528 2.92713
487 0 1 1 2.05222 0.0788636 2.92564
488 0 1 -1 2.88932 0.0544107 3.03038
489 0 1 1 -4.08516 1.05108 3.12398
490 0 1 -1 -3.02327 0.934946 3.03412
491 0 1 1 -2.03779 0.95331 2.8842
492 0 1 -1 -0.895386 0.954287 3.08005
493 0 1 1 -0.0817858 0.941927 2.98058
494 0 1 -1 0.953967 0.878212 2.90306
495 0 1 1 1.99909 1.08037 2.92398
496 0 1 -1 3.08727 1.10969 3.08465
497 0 1 1 -3.98022 1.88068 2.93633
498 0 1 -1 -2.92787 2.04674 3.03568
499 0 1 1 -1.96198 1.87807 2.94019
500 0 1 -1 -1.03546 1.93453 3.07496
501 0 1 1 -0.124763 2.05216 2.95783
502 0 1 -1 0.979259 1.89925 2.91744
503 0 1 1 2.0151 2.025 3.03444
504 0 1 -1 2.92825 1.97431 2.99608
505 0 1 1 -4.00084 2.89932 3.00835
506 0 1 -1 -3.01518 3.07128 3.02803
507 0 1 1 -1.8915 3.06862 2.99208
508 0 1 -1 -1.00238 3.10334 3.07215
509 0 1 1 -0.0658704 3.05264 2.89397
510 0 1 -1 0.907189 2.93155 2.97621
511 0 1 1 1.99142 3.10728 3.04611
512 0 1 -1 3.02379 3.0673 3.0493
