LAMMPS Description

2048 atoms
0 bonds
0 angles
0 dihedrals
0 impropers

3 atom types

-7.52829 7.52829 xlo xhi
-7.52829 7.52829 ylo yhi
-7.52829 7.52829 zlo zhi

Masses

1 1 
2 1 
3 1 

Atoms

1 0 3 0 -7.52829 -7.52829 -7.52829 
2 0 2 0 -5.64622 -7.52829 -7.52829 
3 0 2 0 -3.76414 -7.52829 -7.52829 
4 0 3 0 -1.88207 -7.52829 -7.52829 
5 0 2 0 0 -7.52829 -7.52829 
6 0 2 0 1.88207 -7.52829 -7.52829 
7 0 3 0 3.76414 -7.52829 -7.52829 
8 0 1 0 5.64622 -7.52829 -7.52829 
9 0 2 0 -6.58725 -6.58725 -7.52829 
10 0 2 0 -4.70518 -6.58725 -7.52829 
11 0 2 0 -2.82311 -6.58725 -7.52829 
12 0 2 0 -0.941036 -6.58725 -7.52829 
13 0 2 0 0.941036 -6.58725 -7.52829 
14 0 3 0 2.82311 -6.58725 -7.52829 
15 0 3 0 4.70518 -6.58725 -7.52829 
16 0 3 0 6.58725 -6.58725 -7.52829 
17 0 2 0 -7.52829 -5.64622 -7.52829 
18 0 2 0 -5.64622 -5.64622 -7.52829 
19 0 1 0 -3.76414 -5.64622 -7.52829 
20 0 3 0 -1.88207 -5.64622 -7.52829 
21 0 1 0 0 -5.64622 -7.52829 
22 0 3 0 1.88207 -5.64622 -7.52829 
23 0 1 0 3.76414 -5.64622 -7.52829 
24 0 2 0 5.64622 -5.64622 -7.52829 
25 0 3 0 -6.58725 -4.70518 -7.52829 
26 0 1 0 -4.70518 -4.70518 -7.52829 
27 0 3 0 -2.82311 -4.70518 -7.52829 
28 0 2 0 -0.941036 -4.70518 -7.52829 
29 0 3 0 0.941036 -4.70518 -7.52829 
30 0 1 0 2.82311 -4.70518 -7.52829 
31 0 3 0 4.70518 -4.70518 -7.52829 
32 0 3 0 6.58725 -4.70518 -7.52829 
33 0 1 0 -7.52829 -3.76414 -7.52829 
34 0 1 0 -5.64622 -3.76414 -7.52829 
35 0 2 0 -3.76414 -3.76414 -7.52829 
36 0 3 0 -1.88207 -3.76414 -7.52829 
37 0 3 0 0 -3.76414 -7.52829 
38 0 2 0 1.88207 -3.76414 -7.52829 
39 0 2 0 3.76414 -3.76414 -7.52829 
40 0 3 0 5.64622 -3.76414 -7.52829 
41 0 3 0 -6.58725 -2.82311 -7.52829 
42 0 3 0 -4.70518 -2.82311 -7.52829 
43 0 1 0 -2.82311 -2.82311 -7.52829 
44 0 3 0 -0.941036 -2.82311 -7.52829 
45 0 3 0 0.941036 -2.82311 -7.52829 
46 0 3 0 2.82311 -2.82311 -7.52829 
47 0 2 0 4.70518 -2.82311 -7.52829 
48 0 3 0 6.58725 -2.82311 -7.52829 
49 0 1 0 -7.52829 -1.88207 -7.52829 
50 0 2 0 -5.64622 -1.88207 -7.52829 
51 0 1 0 -3.76414 -1.88207 -7.52829 
52 0 3 0 -1.88207 -1.88207 -7.52829 
53 0 3 0 0 -1.88207 -7.52829 
54 0 1 0 1.88207 -1.88207 -7.52829 
55 0 1 0 3.76414 -1.88207 -7.52829 
56 0 3 0 5.64622 -1.88207 -7.52829 
57 0 2 0 -6.58725 -0.941036 -7.52829 
58 0 1 0 -4.70518 -0.941036 -7.52829 
59 0 3 0 -2.82311 -0.941036 -7.52829 
60 0 3 0 -0.941036 -0.941036 -7.52829 
61 0 1 0 0.941036 -0.941036 -7.52829 
62 0 3 0 2.82311 -0.941036 -7.52829 
63 0 1 0 4.70518 -0.941036 -7.52829 
64 0 1 0 6.58725 -0.941036 -7.52829 
65 0 2 0 -7.52829 0 -7.52829 
66 0 2 0 -5.64622 0 -7.52829 
67 0 3 0 -3.76414 0 -7.52829 
68 0 3 0 -1.88207 0 -7.52829 
69 0 3 0 0 0 -7.52829 
70 0 3 0 1.88207 0 -7.52829 
71 0 1 0 3.76414 0 -7.52829 
72 0 2 0 5.64622 0 -7.52829 
73 0 1 0 -6.58725 0.941036 -7.52829 
74 0 2 0 -4.70518 0.941036 -7.52829 
75 0 3 0 -2.82311 0.941036 -7.52829 
76 0 3 0 -0.941036 0.941036 -7.52829 
77 0 1 0 0.941036 0.941036 -7.52829 
78 0 2 0 2.82311 0.941036 -7.52829 
79 0 2 0 4.70518 0.941036 -7.52829 
80 0 2 0 6.58725 0.941036 -7.52829 
81 0 1 0 -7.52829 1.88207 -7.52829 
82 0 2 0 -5.64622 1.88207 -7.52829 
83 0 1 0 -3.76414 1.88207 -7.52829 
84 0 3 0 -1.88207 1.88207 -7.52829 
85 0 3 0 0 1.88207 -7.52829 
86 0 3 0 1.88207 1.88207 -7.52829 
87 0 3 0 3.76414 1.88207 -7.52829 
88 0 2 0 5.64622 1.88207 -7.52829 
89 0 3 0 -6.58725 2.82311 -7.52829 
90 0 3 0 -4.70518 2.82311 -7.52829 
91 0 3 0 -2.82311 2.82311 -7.52829 
92 0 3 0 -0.941036 2.82311 -7.52829 
93 0 1 0 0.941036 2.82311 -7.52829 
94 0 1 0 2.82311 2.82311 -7.52829 
95 0 3 0 4.70518 2.82311 -7.52829 
96 0 3 0 6.58725 2.82311 -7.52829 
97 0 2 0 -7.52829 3.76414 -7.52829 
98 0 3 0 -5.64622 3.76414 -7.52829 
99 0 1 0 -3.76414 3.76414 -7.52829 
100 0 1 0 -1.88207 3.76414 -7.52829 
101 0 3 0 0 3.76414 -7.52829 
102 0 1 0 1.88207 3.76414 -7.52829 
103 0 3 0 3.76414 3.76414 -7.52829 
104 0 3 0 5.64622 3.76414 -7.52829 
105 0 1 0 -6.58725 4.70518 -7.52829 
106 0 3 0 -4.70518 4.70518 -7.52829 
107 0 2 0 -2.82311 4.70518 -7.52829 
108 0 1 0 -0.941036 4.70518 -7.52829 
109 0 1 0 0.941036 4.70518 -7.52829 
110 0 3 0 2.82311 4.70518 -7.52829 
111 0 2 0 4.70518 4.70518 -7.52829 
112 0 1 0 6.58725 4.70518 -7.52829 
113 0 2 0 -7.52829 5.64622 -7.52829 
114 0 3 0 -5.64622 5.64622 -7.52829 
115 0 2 0 -3.76414 5.64622 -7.52829 
116 0 2 0 -1.88207 5.64622 -7.52829 
117 0 1 0 0 5.64622 -7.52829 
118 0 2 0 1.88207 5.64622 -7.52829 
119 0 1 0 3.76414 5.64622 -7.52829 
120 0 3 0 5.64622 5.64622 -7.52829 
121 0 2 0 -6.58725 6.58725 -7.52829 
122 0 3 0 -4.70518 6.58725 -7.52829 
123 0 3 0 -2.82311 6.58725 -7.52829 
124 0 1 0 -0.941036 6.58725 -7.52829 
125 0 3 0 0.941036 6.58725 -7.52829 
126 0 1 0 2.82311 6.58725 -7.52829 
127 0 2 0 4.70518 6.58725 -7.52829 
128 0 2 0 6.58725 6.58725 -7.52829 
129 0 2 0 -6.58725 -7.52829 -6.58725 
130 0 1 0 -4.70518 -7.52829 -6.58725 
131 0 2 0 -2.82311 -7.52829 -6.58725 
132 0 1 0 -0.941036 -7.52829 -6.58725 
133 0 1 0 0.941036 -7.52829 -6.58725 
134 0 3 0 2.82311 -7.52829 -6.58725 
135 0 2 0 4.70518 -7.52829 -6.58725 
136 0 2 0 6.58725 -7.52829 -6.58725 
137 0 2 0 -7.52829 -6.58725 -6.58725 
138 0 3 0 -5.64622 -6.58725 -6.58725 
139 0 3 0 -3.76414 -6.58725 -6.58725 
140 0 2 0 -1.88207 -6.58725 -6.58725 
141 0 3 0 0 -6.58725 -6.58725 
142 0 1 0 1.88207 -6.58725 -6.58725 
143 0 2 0 3.76414 -6.58725 -6.58725 
144 0 2 0 5.64622 -6.58725 -6.58725 
145 0 1 0 -6.58725 -5.64622 -6.58725 
146 0 2 0 -4.70518 -5.64622 -6.58725 
147 0 3 0 -2.82311 -5.64622 -6.58725 
148 0 3 0 -0.941036 -5.64622 -6.58725 
149 0 1 0 0.941036 -5.64622 -6.58725 
150 0 2 0 2.82311 -5.64622 -6.58725 
151 0 1 0 4.70518 -5.64622 -6.58725 
152 0 1 0 6.58725 -5.64622 -6.58725 
153 0 2 0 -7.52829 -4.70518 -6.58725 
154 0 1 0 -5.64622 -4.70518 -6.58725 
155 0 3 0 -3.76414 -4.70518 -6.58725 
156 0 2 0 -1.88207 -4.70518 -6.58725 
157 0 1 0 0 -4.70518 -6.58725 
158 0 3 0 1.88207 -4.70518 -6.58725 
159 0 1 0 3.76414 -4.70518 -6.58725 
160 0 2 0 5.64622 -4.70518 -6.58725 
161 0 2 0 -6.58725 -3.76414 -6.58725 
162 0 3 0 -4.70518 -3.76414 -6.58725 
163 0 2 0 -2.82311 -3.76414 -6.58725 
164 0 2 0 -0.941036 -3.76414 -6.58725 
165 0 2 0 0.941036 -3.76414 -6.58725 
166 0 3 0 2.82311 -3.76414 -6.58725 
167 0 2 0 4.70518 -3.76414 -6.58725 
168 0 3 0 6.58725 -3.76414 -6.58725 
169 0 1 0 -7.52829 -2.82311 -6.58725 
170 0 2 0 -5.64622 -2.82311 -6.58725 
171 0 1 0 -3.76414 -2.82311 -6.58725 
172 0 3 0 -1.88207 -2.82311 -6.58725 
173 0 2 0 0 -2.82311 -6.58725 
174 0 3 0 1.88207 -2.82311 -6.58725 
175 0 1 0 3.76414 -2.82311 -6.58725 
176 0 3 0 5.64622 -2.82311 -6.58725 
177 0 2 0 -6.58725 -1.88207 -6.58725 
178 0 2 0 -4.70518 -1.88207 -6.58725 
179 0 2 0 -2.82311 -1.88207 -6.58725 
180 0 1 0 -0.941036 -1.88207 -6.58725 
181 0 1 0 0.941036 -1.88207 -6.58725 
182 0 2 0 2.82311 -1.88207 -6.58725 
183 0 3 0 4.70518 -1.88207 -6.58725 
184 0 1 0 6.58725 -1.88207 -6.58725 
185 0 1 0 -7.52829 -0.941036 -6.58725 
186 0 1 0 -5.64622 -0.941036 -6.58725 
187 0 1 0 -3.76414 -0.941036 -6.58725 
188 0 3 0 -1.88207 -0.941036 -6.58725 
189 0 3 0 0 -0.941036 -6.58725 
190 0 1 0 1.88207 -0.941036 -6.58725 
191 0 1 0 3.76414 -0.941036 -6.58725 
192 0 2 0 5.64622 -0.941036 -6.58725 
193 0 1 0 -6.58725 0 -6.58725 
194 0 2 0 -4.70518 0 -6.58725 
195 0 1 0 -2.82311 0 -6.58725 
196 0 2 0 -0.941036 0 -6.58725 
197 0 3 0 0.941036 0 -6.58725 
198 0 1 0 2.82311 0 -6.58725 
199 0 1 0 4.70518 0 -6.58725 
200 0 2 0 6.58725 0 -6.58725 
201 0 3 0 -7.52829 0.941036 -6.58725 
202 0 1 0 -5.64622 0.941036 -6.58725 
203 0 1 0 -3.76414 0.941036 -6.58725 
204 0 3 0 -1.88207 0.941036 -6.58725 
205 0 2 0 0 0.941036 -6.58725 
206 0 1 0 1.88207 0.941036 -6.58725 
207 0 3 0 3.76414 0.941036 -6.58725 
208 0 1 0 5.64622 0.941036 -6.58725 
209 0 1 0 -6.58725 1.88207 -6.58725 
210 0 3 0 -4.70518 1.88207 -6.58725 
211 0 2 0 -2.82311 1.88207 -6.58725 
212 0 2 0 -0.941036 1.88207 -6.58725 
213 0 2 0 0.941036 1.88207 -6.58725 
214 0 2 0 2.82311 1.88207 -6.58725 
215 0 3 0 4.70518 1.88207 -6.58725 
216 0 2 0 6.58725 1.88207 -6.58725 
217 0 1 0 -7.52829 2.82311 -6.58725 
218 0 2 0 -5.64622 2.82311 -6.58725 
219 0 3 0 -3.76414 2.82311 -6.58725 
220 0 1 0 -1.88207 2.82311 -6.58725 
221 0 1 0 0 2.82311 -6.58725 
222 0 2 0 1.88207 2.82311 -6.58725 
223 0 1 0 3.76414 2.82311 -6.58725 
224 0 2 0 5.64622 2.82311 -6.58725 
225 0 3 0 -6.58725 3.76414 -6.58725 
226 0 1 0 -4.70518 3.76414 -6.58725 
227 0 3 0 -2.82311 3.76414 -6.58725 
228 0 1 0 -0.941036 3.76414 -6.58725 
229 0 3 0 0.941036 3.76414 -6.58725 
230 0 1 0 2.82311 3.76414 -6.58725 
231 0 1 0 4.70518 3.76414 -6.58725 
232 0 1 0 6.58725 3.76414 -6.58725 
233 0 2 0 -7.52829 4.70518 -6.58725 
234 0 3 0 -5.64622 4.70518 -6.58725 
235 0 3 0 -3.76414 4.70518 -6.58725 
236 0 3 0 -1.88207 4.70518 -6.58725 
237 0 2 0 0 4.70518 -6.58725 
238 0 2 0 1.88207 4.70518 -6.58725 
239 0 1 0 3.76414 4.70518 -6.58725 
240 0 3 0 5.64622 4.70518 -6.58725 
241 0 2 0 -6.58725 5.64622 -6.58725 
242 0 3 0 -4.70518 5.64622 -6.58725 
243 0 1 0 -2.82311 5.64622 -6.58725 
244 0 3 0 -0.941036 5.64622 -6.58725 
245 0 1 0 0.941036 5.64622 -6.58725 
246 0 3 0 2.82311 5.64622 -6.58725 
247 0 2 0 4.70518 5.64622 -6.58725 
248 0 2 0 6.58725 5.64622 -6.58725 
249 0 3 0 -7.52829 6.58725 -6.58725 
250 0 1 0 -5.64622 6.58725 -6.58725 
251 0 2 0 -3.76414 6.58725 -6.58725 
252 0 2 0 -1.88207 6.58725 -6.58725 
253 0 2 0 0 6.58725 -6.58725 
254 0 1 0 1.88207 6.58725 -6.58725 
255 0 3 0 3.76414 6.58725 -6.58725 
256 0 2 0 5.64622 6.58725 -6.58725 
257 0 3 0 -7.52829 -7.52829 -5.64622 
258 0 1 0 -5.64622 -7.52829 -5.64622 
259 0 2 0 -3.76414 -7.52829 -5.64622 
260 0 2 0 -1.88207 -7.52829 -5.64622 
261 0 2 0 0 -7.52829 -5.64622 
262 0 3 0 1.88207 -7.52829 -5.64622 
263 0 1 0 3.76414 -7.52829 -5.64622 
264 0 3 0 5.64622 -7.52829 -5.64622 
265 0 1 0 -6.58725 -6.58725 -5.64622 
266 0 1 0 -4.70518 -6.58725 -5.64622 
267 0 3 0 -2.82311 -6.58725 -5.64622 
268 0 3 0 -0.941036 -6.58725 -5.64622 
269 0 2 0 0.941036 -6.58725 -5.64622 
270 0 1 0 2.82311 -6.58725 -5.64622 
271 0 1 0 4.70518 -6.58725 -5.64622 
272 0 2 0 6.58725 -6.58725 -5.64622 
273 0 3 0 -7.52829 -5.64622 -5.64622 
274 0 1 0 -5.64622 -5.64622 -5.64622 
275 0 1 0 -3.76414 -5.64622 -5.64622 
276 0 3 0 -1.88207 -5.64622 -5.64622 
277 0 1 0 0 -5.64622 -5.64622 
278 0 3 0 1.88207 -5.64622 -5.64622 
279 0 2 0 3.76414 -5.64622 -5.64622 
280 0 2 0 5.64622 -5.64622 -5.64622 
281 0 2 0 -6.58725 -4.70518 -5.64622 
282 0 1 0 -4.70518 -4.70518 -5.64622 
283 0 3 0 -2.82311 -4.70518 -5.64622 
284 0 2 0 -0.941036 -4.70518 -5.64622 
285 0 1 0 0.941036 -4.70518 -5.64622 
286 0 1 0 2.82311 -4.70518 -5.64622 
287 0 2 0 4.70518 -4.70518 -5.64622 
288 0 1 0 6.58725 -4.70518 -5.64622 
289 0 1 0 -7.52829 -3.76414 -5.64622 
290 0 1 0 -5.64622 -3.76414 -5.64622 
291 0 1 0 -3.76414 -3.76414 -5.64622 
292 0 1 0 -1.88207 -3.76414 -5.64622 
293 0 3 0 0 -3.76414 -5.64622 
294 0 3 0 1.88207 -3.76414 -5.64622 
295 0 1 0 3.76414 -3.76414 -5.64622 
296 0 2 0 5.64622 -3.76414 -5.64622 
297 0 2 0 -6.58725 -2.82311 -5.64622 
298 0 3 0 -4.70518 -2.82311 -5.64622 
299 0 3 0 -2.82311 -2.82311 -5.64622 
300 0 1 0 -0.941036 -2.82311 -5.64622 
301 0 2 0 0.941036 -2.82311 -5.64622 
302 0 1 0 2.82311 -2.82311 -5.64622 
303 0 1 0 4.70518 -2.82311 -5.64622 
304 0 2 0 6.58725 -2.82311 -5.64622 
305 0 3 0 -7.52829 -1.88207 -5.64622 
306 0 2 0 -5.64622 -1.88207 -5.64622 
307 0 2 0 -3.76414 -1.88207 -5.64622 
308 0 1 0 -1.88207 -1.88207 -5.64622 
309 0 2 0 0 -1.88207 -5.64622 
310 0 1 0 1.88207 -1.88207 -5.64622 
311 0 3 0 3.76414 -1.88207 -5.64622 
312 0 1 0 5.64622 -1.88207 -5.64622 
313 0 2 0 -6.58725 -0.941036 -5.64622 
314 0 2 0 -4.70518 -0.941036 -5.64622 
315 0 2 0 -2.82311 -0.941036 -5.64622 
316 0 1 0 -0.941036 -0.941036 -5.64622 
317 0 3 0 0.941036 -0.941036 -5.64622 
318 0 1 0 2.82311 -0.941036 -5.64622 
319 0 3 0 4.70518 -0.941036 -5.64622 
320 0 3 0 6.58725 -0.941036 -5.64622 
321 0 3 0 -7.52829 0 -5.64622 
322 0 1 0 -5.64622 0 -5.64622 
323 0 3 0 -3.76414 0 -5.64622 
324 0 2 0 -1.88207 0 -5.64622 
325 0 1 0 0 0 -5.64622 
326 0 2 0 1.88207 0 -5.64622 
327 0 3 0 3.76414 0 -5.64622 
328 0 2 0 5.64622 0 -5.64622 
329 0 2 0 -6.58725 0.941036 -5.64622 
330 0 1 0 -4.70518 0.941036 -5.64622 
331 0 2 0 -2.82311 0.941036 -5.64622 
332 0 3 0 -0.941036 0.941036 -5.64622 
333 0 3 0 0.941036 0.941036 -5.64622 
334 0 1 0 2.82311 0.941036 -5.64622 
335 0 2 0 4.70518 0.941036 -5.64622 
336 0 3 0 6.58725 0.941036 -5.64622 
337 0 3 0 -7.52829 1.88207 -5.64622 
338 0 1 0 -5.64622 1.88207 -5.64622 
339 0 1 0 -3.76414 1.88207 -5.64622 
340 0 1 0 -1.88207 1.88207 -5.64622 
341 0 3 0 0 1.88207 -5.64622 
342 0 2 0 1.88207 1.88207 -5.64622 
343 0 1 0 3.76414 1.88207 -5.64622 
344 0 2 0 5.64622 1.88207 -5.64622 
345 0 2 0 -6.58725 2.82311 -5.64622 
346 0 3 0 -4.70518 2.82311 -5.64622 
347 0 3 0 -2.82311 2.82311 -5.64622 
348 0 1 0 -0.941036 2.82311 -5.64622 
349 0 3 0 0.941036 2.82311 -5.64622 
350 0 2 0 2.82311 2.82311 -5.64622 
351 0 2 0 4.70518 2.82311 -5.64622 
352 0 1 0 6.58725 2.82311 -5.64622 
353 0 3 0 -7.52829 3.76414 -5.64622 
354 0 3 0 -5.64622 3.76414 -5.64622 
355 0 2 0 -3.76414 3.76414 -5.64622 
356 0 3 0 -1.88207 3.76414 -5.64622 
357 0 3 0 0 3.76414 -5.64622 
358 0 2 0 1.88207 3.76414 -5.64622 
359 0 2 0 3.76414 3.76414 -5.64622 
360 0 1 0 5.64622 3.76414 -5.64622 
361 0 1 0 -6.58725 4.70518 -5.64622 
362 0 3 0 -4.70518 4.70518 -5.64622 
363 0 2 0 -2.82311 4.70518 -5.64622 
364 0 1 0 -0.941036 4.70518 -5.64622 
365 0 1 0 0.941036 4.70518 -5.64622 
366 0 1 0 2.82311 4.70518 -5.64622 
367 0 2 0 4.70518 4.70518 -5.64622 
368 0 1 0 6.58725 4.70518 -5.64622 
369 0 3 0 -7.52829 5.64622 -5.64622 
370 0 1 0 -5.64622 5.64622 -5.64622 
371 0 1 0 -3.76414 5.64622 -5.64622 
372 0 3 0 -1.88207 5.64622 -5.64622 
373 0 3 0 0 5.64622 -5.64622 
374 0 1 0 1.88207 5.64622 -5.64622 
375 0 1 0 3.76414 5.64622 -5.64622 
376 0 2 0 5.64622 5.64622 -5.64622 
377 0 2 0 -6.58725 6.58725 -5.64622 
378 0 1 0 -4.70518 6.58725 -5.64622 
379 0 1 0 -2.82311 6.58725 -5.64622 
380 0 3 0 -0.941036 6.58725 -5.64622 
381 0 1 0 0.941036 6.58725 -5.64622 
382 0 1 0 2.82311 6.58725 -5.64622 
383 0 1 0 4.70518 6.58725 -5.64622 
384 0 2 0 6.58725 6.58725 -5.64622 
385 0 3 0 -6.58725 -7.52829 -4.70518 
386 0 1 0 -4.70518 -7.52829 -4.70518 
387 0 1 0 -2.82311 -7.52829 -4.70518 
388 0 3 0 -0.941036 -7.52829 -4.70518 
389 0 2 0 0.941036 -7.52829 -4.70518 
390 0 3 0 2.82311 -7.52829 -4.70518 
391 0 3 0 4.70518 -7.52829 -4.70518 
392 0 2 0 6.58725 -7.52829 -4.70518 
393 0 2 0 -7.52829 -6.58725 -4.70518 
394 0 3 0 -5.64622 -6.58725 -4.70518 
395 0 3 0 -3.76414 -6.58725 -4.70518 
396 0 2 0 -1.88207 -6.58725 -4.70518 
397 0 3 0 0 -6.58725 -4.70518 
398 0 3 0 1.88207 -6.58725 -4.70518 
399 0 1 0 3.76414 -6.58725 -4.70518 
400 0 1 0 5.64622 -6.58725 -4.70518 
401 0 3 0 -6.58725 -5.64622 -4.70518 
402 0 3 0 -4.70518 -5.64622 -4.70518 
403 0 3 0 -2.82311 -5.64622 -4.70518 
404 0 2 0 -0.941036 -5.64622 -4.70518 
405 0 3 0 0.941036 -5.64622 -4.70518 
406 0 3 0 2.82311 -5.64622 -4.70518 
407 0 3 0 4.70518 -5.64622 -4.70518 
408 0 2 0 6.58725 -5.64622 -4.70518 
409 0 3 0 -7.52829 -4.70518 -4.70518 
410 0 2 0 -5.64622 -4.70518 -4.70518 
411 0 2 0 -3.76414 -4.70518 -4.70518 
412 0 1 0 -1.88207 -4.70518 -4.70518 
413 0 3 0 0 -4.70518 -4.70518 
414 0 3 0 1.88207 -4.70518 -4.70518 
415 0 3 0 3.76414 -4.70518 -4.70518 
416 0 3 0 5.64622 -4.70518 -4.70518 
417 0 2 0 -6.58725 -3.76414 -4.70518 
418 0 2 0 -4.70518 -3.76414 -4.70518 
419 0 3 0 -2.82311 -3.76414 -4.70518 
420 0 2 0 -0.941036 -3.76414 -4.70518 
421 0 1 0 0.941036 -3.76414 -4.70518 
422 0 3 0 2.82311 -3.76414 -4.70518 
423 0 1 0 4.70518 -3.76414 -4.70518 
424 0 1 0 6.58725 -3.76414 -4.70518 
425 0 2 0 -7.52829 -2.82311 -4.70518 
426 0 1 0 -5.64622 -2.82311 -4.70518 
427 0 3 0 -3.76414 -2.82311 -4.70518 
428 0 2 0 -1.88207 -2.82311 -4.70518 
429 0 3 0 0 -2.82311 -4.70518 
430 0 2 0 1.88207 -2.82311 -4.70518 
431 0 1 0 3.76414 -2.82311 -4.70518 
432 0 3 0 5.64622 -2.82311 -4.70518 
433 0 1 0 -6.58725 -1.88207 -4.70518 
434 0 2 0 -4.70518 -1.88207 -4.70518 
435 0 2 0 -2.82311 -1.88207 -4.70518 
436 0 3 0 -0.941036 -1.88207 -4.70518 
437 0 3 0 0.941036 -1.88207 -4.70518 
438 0 2 0 2.82311 -1.88207 -4.70518 
439 0 2 0 4.70518 -1.88207 -4.70518 
440 0 2 0 6.58725 -1.88207 -4.70518 
441 0 3 0 -7.52829 -0.941036 -4.70518 
442 0 2 0 -5.64622 -0.941036 -4.70518 
443 0 3 0 -3.76414 -0.941036 -4.70518 
444 0 3 0 -1.88207 -0.941036 -4.70518 
445 0 1 0 0 -0.941036 -4.70518 
446 0 3 0 1.88207 -0.941036 -4.70518 
447 0 2 0 3.76414 -0.941036 -4.70518 
448 0 1 0 5.64622 -0.941036 -4.70518 
449 0 3 0 -6.58725 0 -4.70518 
450 0 2 0 -4.70518 0 -4.70518 
451 0 3 0 -2.82311 0 -4.70518 
452 0 1 0 -0.941036 0 -4.70518 
453 0 2 0 0.941036 0 -4.70518 
454 0 2 0 2.82311 0 -4.70518 
455 0 3 0 4.70518 0 -4.70518 
456 0 2 0 6.58725 0 -4.70518 
457 0 3 0 -7.52829 0.941036 -4.70518 
458 0 1 0 -5.64622 0.941036 -4.70518 
459 0 2 0 -3.76414 0.941036 -4.70518 
460 0 3 0 -1.88207 0.941036 -4.70518 
461 0 3 0 0 0.941036 -4.70518 
462 0 1 0 1.88207 0.941036 -4.70518 
463 0 2 0 3.76414 0.941036 -4.70518 
464 0 2 0 5.64622 0.941036 -4.70518 
465 0 3 0 -6.58725 1.88207 -4.70518 
466 0 2 0 -4.70518 1.88207 -4.70518 
467 0 1 0 -2.82311 1.88207 -4.70518 
468 0 2 0 -0.941036 1.88207 -4.70518 
469 0 1 0 0.941036 1.88207 -4.70518 
470 0 1 0 2.82311 1.88207 -4.70518 
471 0 1 0 4.70518 1.88207 -4.70518 
472 0 1 0 6.58725 1.88207 -4.70518 
473 0 2 0 -7.52829 2.82311 -4.70518 
474 0 2 0 -5.64622 2.82311 -4.70518 
475 0 1 0 -3.76414 2.82311 -4.70518 
476 0 2 0 -1.88207 2.82311 -4.70518 
477 0 2 0 0 2.82311 -4.70518 
478 0 1 0 1.88207 2.82311 -4.70518 
479 0 2 0 3.76414 2.82311 -4.70518 
480 0 2 0 5.64622 2.82311 -4.70518 
481 0 3 0 -6.58725 3.76414 -4.70518 
482 0 1 0 -4.70518 3.76414 -4.70518 
483 0 1 0 -2.82311 3.76414 -4.70518 
484 0 1 0 -0.941036 3.76414 -4.70518 
485 0 1 0 0.941036 3.76414 -4.70518 
486 0 1 0 2.82311 3.76414 -4.70518 
487 0 3 0 4.70518 3.76414 -4.70518 
488 0 2 0 6.58725 3.76414 -4.70518 
489 0 1 0 -7.52829 4.70518 -4.70518 
490 0 1 0 -5.64622 4.70518 -4.70518 
491 0 2 0 -3.76414 4.70518 -4.70518 
492 0 2 0 -1.88207 4.70518 -4.70518 
493 0 1 0 0 4.70518 -4.70518 
494 0 2 0 1.88207 4.70518 -4.70518 
495 0 3 0 3.76414 4.70518 -4.70518 
496 0 2 0 5.64622 4.70518 -4.70518 
497 0 1 0 -6.58725 5.64622 -4.70518 
498 0 3 0 -4.70518 5.64622 -4.70518 
499 0 1 0 -2.82311 5.64622 -4.70518 
500 0 3 0 -0.941036 5.64622 -4.70518 
501 0 2 0 0.941036 5.64622 -4.70518 
502 0 3 0 2.82311 5.64622 -4.70518 
503 0 1 0 4.70518 5.64622 -4.70518 
504 0 3 0 6.58725 5.64622 -4.70518 
505 0 2 0 -7.52829 6.58725 -4.70518 
506 0 1 0 -5.64622 6.58725 -4.70518 
507 0 2 0 -3.76414 6.58725 -4.70518 
508 0 1 0 -1.88207 6.58725 -4.70518 
509 0 1 0 0 6.58725 -4.70518 
510 0 2 0 1.88207 6.58725 -4.70518 
511 0 2 0 3.76414 6.58725 -4.70518 
512 0 1 0 5.64622 6.58725 -4.70518 
513 0 2 0 -7.52829 -7.52829 -3.76414 
514 0 3 0 -5.64622 -7.52829 -3.76414 
515 0 3 0 -3.76414 -7.52829 -3.76414 
516 0 2 0 -1.88207 -7.52829 -3.76414 
517 0 2 0 0 -7.52829 -3.76414 
518 0 3 0 1.88207 -7.52829 -3.76414 
519 0 3 0 3.76414 -7.52829 -3.76414 
520 0 1 0 5.64622 -7.52829 -3.76414 
521 0 1 0 -6.58725 -6.58725 -3.76414 
522 0 1 0 -4.70518 -6.58725 -3.76414 
523 0 2 0 -2.82311 -6.58725 -3.76414 
524 0 1 0 -0.941036 -6.58725 -3.76414 
525 0 3 0 0.941036 -6.58725 -3.76414 
526 0 3 0 2.82311 -6.58725 -3.76414 
527 0 2 0 4.70518 -6.58725 -3.76414 
528 0 1 0 6.58725 -6.58725 -3.76414 
529 0 1 0 -7.52829 -5.64622 -3.76414 
530 0 3 0 -5.64622 -5.64622 -3.76414 
531 0 2 0 -3.76414 -5.64622 -3.76414 
532 0 3 0 -1.88207 -5.64622 -3.76414 
533 0 3 0 0 -5.64622 -3.76414 
534 0 1 0 1.88207 -5.64622 -3.76414 
535 0 3 0 3.76414 -5.64622 -3.76414 
536 0 3 0 5.64622 -5.64622 -3.76414 
537 0 3 0 -6.58725 -4.70518 -3.76414 
538 0 3 0 -4.70518 -4.70518 -3.76414 
539 0 3 0 -2.82311 -4.70518 -3.76414 
540 0 3 0 -0.941036 -4.70518 -3.76414 
541 0 2 0 0.941036 -4.70518 -3.76414 
542 0 2 0 2.82311 -4.70518 -3.76414 
543 0 2 0 4.70518 -4.70518 -3.76414 
544 0 3 0 6.58725 -4.70518 -3.76414 
545 0 2 0 -7.52829 -3.76414 -3.76414 
546 0 2 0 -5.64622 -3.76414 -3.76414 
547 0 3 0 -3.76414 -3.76414 -3.76414 
548 0 3 0 -1.88207 -3.76414 -3.76414 
549 0 2 0 0 -3.76414 -3.76414 
550 0 1 0 1.88207 -3.76414 -3.76414 
551 0 3 0 3.76414 -3.76414 -3.76414 
552 0 1 0 5.64622 -3.76414 -3.76414 
553 0 1 0 -6.58725 -2.82311 -3.76414 
554 0 3 0 -4.70518 -2.82311 -3.76414 
555 0 3 0 -2.82311 -2.82311 -3.76414 
556 0 3 0 -0.941036 -2.82311 -3.76414 
557 0 1 0 0.941036 -2.82311 -3.76414 
558 0 2 0 2.82311 -2.82311 -3.76414 
559 0 2 0 4.70518 -2.82311 -3.76414 
560 0 3 0 6.58725 -2.82311 -3.76414 
561 0 1 0 -7.52829 -1.88207 -3.76414 
562 0 3 0 -5.64622 -1.88207 -3.76414 
563 0 3 0 -3.76414 -1.88207 -3.76414 
564 0 3 0 -1.88207 -1.88207 -3.76414 
565 0 2 0 0 -1.88207 -3.76414 
566 0 1 0 1.88207 -1.88207 -3.76414 
567 0 3 0 3.76414 -1.88207 -3.76414 
568 0 1 0 5.64622 -1.88207 -3.76414 
569 0 3 0 -6.58725 -0.941036 -3.76414 
570 0 2 0 -4.70518 -0.941036 -3.76414 
571 0 1 0 -2.82311 -0.941036 -3.76414 
572 0 2 0 -0.941036 -0.941036 -3.76414 
573 0 3 0 0.941036 -0.941036 -3.76414 
574 0 3 0 2.82311 -0.941036 -3.76414 
575 0 3 0 4.70518 -0.941036 -3.76414 
576 0 3 0 6.58725 -0.941036 -3.76414 
577 0 2 0 -7.52829 0 -3.76414 
578 0 3 0 -5.64622 0 -3.76414 
579 0 3 0 -3.76414 0 -3.76414 
580 0 3 0 -1.88207 0 -3.76414 
581 0 2 0 0 0 -3.76414 
582 0 1 0 1.88207 0 -3.76414 
583 0 3 0 3.76414 0 -3.76414 
584 0 1 0 5.64622 0 -3.76414 
585 0 2 0 -6.58725 0.941036 -3.76414 
586 0 3 0 -4.70518 0.941036 -3.76414 
587 0 1 0 -2.82311 0.941036 -3.76414 
588 0 3 0 -0.941036 0.941036 -3.76414 
589 0 1 0 0.941036 0.941036 -3.76414 
590 0 1 0 2.82311 0.941036 -3.76414 
591 0 3 0 4.70518 0.941036 -3.76414 
592 0 3 0 6.58725 0.941036 -3.76414 
593 0 1 0 -7.52829 1.88207 -3.76414 
594 0 2 0 -5.64622 1.88207 -3.76414 
595 0 1 0 -3.76414 1.88207 -3.76414 
596 0 3 0 -1.88207 1.88207 -3.76414 
597 0 1 0 0 1.88207 -3.76414 
598 0 3 0 1.88207 1.88207 -3.76414 
599 0 3 0 3.76414 1.88207 -3.76414 
600 0 1 0 5.64622 1.88207 -3.76414 
601 0 3 0 -6.58725 2.82311 -3.76414 
602 0 1 0 -4.70518 2.82311 -3.76414 
603 0 2 0 -2.82311 2.82311 -3.76414 
604 0 3 0 -0.941036 2.82311 -3.76414 
605 0 2 0 0.941036 2.82311 -3.76414 
606 0 3 0 2.82311 2.82311 -3.76414 
607 0 3 0 4.70518 2.82311 -3.76414 
608 0 1 0 6.58725 2.82311 -3.76414 
609 0 1 0 -7.52829 3.76414 -3.76414 
610 0 2 0 -5.64622 3.76414 -3.76414 
611 0 1 0 -3.76414 3.76414 -3.76414 
612 0 2 0 -1.88207 3.76414 -3.76414 
613 0 3 0 0 3.76414 -3.76414 
614 0 3 0 1.88207 3.76414 -3.76414 
615 0 3 0 3.76414 3.76414 -3.76414 
616 0 3 0 5.64622 3.76414 -3.76414 
617 0 3 0 -6.58725 4.70518 -3.76414 
618 0 3 0 -4.70518 4.70518 -3.76414 
619 0 3 0 -2.82311 4.70518 -3.76414 
620 0 1 0 -0.941036 4.70518 -3.76414 
621 0 2 0 0.941036 4.70518 -3.76414 
622 0 3 0 2.82311 4.70518 -3.76414 
623 0 2 0 4.70518 4.70518 -3.76414 
624 0 2 0 6.58725 4.70518 -3.76414 
625 0 3 0 -7.52829 5.64622 -3.76414 
626 0 2 0 -5.64622 5.64622 -3.76414 
627 0 2 0 -3.76414 5.64622 -3.76414 
628 0 3 0 -1.88207 5.64622 -3.76414 
629 0 3 0 0 5.64622 -3.76414 
630 0 2 0 1.88207 5.64622 -3.76414 
631 0 2 0 3.76414 5.64622 -3.76414 
632 0 2 0 5.64622 5.64622 -3.76414 
633 0 1 0 -6.58725 6.58725 -3.76414 
634 0 2 0 -4.70518 6.58725 -3.76414 
635 0 3 0 -2.82311 6.58725 -3.76414 
636 0 3 0 -0.941036 6.58725 -3.76414 
637 0 1 0 0.941036 6.58725 -3.76414 
638 0 3 0 2.82311 6.58725 -3.76414 
639 0 2 0 4.70518 6.58725 -3.76414 
640 0 2 0 6.58725 6.58725 -3.76414 
641 0 1 0 -6.58725 -7.52829 -2.82311 
642 0 2 0 -4.70518 -7.52829 -2.82311 
643 0 2 0 -2.82311 -7.52829 -2.82311 
644 0 3 0 -0.941036 -7.52829 -2.82311 
645 0 3 0 0.941036 -7.52829 -2.82311 
646 0 1 0 2.82311 -7.52829 -2.82311 
647 0 1 0 4.70518 -7.52829 -2.82311 
648 0 3 0 6.58725 -7.52829 -2.82311 
649 0 1 0 -7.52829 -6.58725 -2.82311 
650 0 1 0 -5.64622 -6.58725 -2.82311 
651 0 1 0 -3.76414 -6.58725 -2.82311 
652 0 1 0 -1.88207 -6.58725 -2.82311 
653 0 1 0 0 -6.58725 -2.82311 
654 0 3 0 1.88207 -6.58725 -2.82311 
655 0 1 0 3.76414 -6.58725 -2.82311 
656 0 3 0 5.64622 -6.58725 -2.82311 
657 0 2 0 -6.58725 -5.64622 -2.82311 
658 0 2 0 -4.70518 -5.64622 -2.82311 
659 0 1 0 -2.82311 -5.64622 -2.82311 
660 0 1 0 -0.941036 -5.64622 -2.82311 
661 0 2 0 0.941036 -5.64622 -2.82311 
662 0 2 0 2.82311 -5.64622 -2.82311 
663 0 3 0 4.70518 -5.64622 -2.82311 
664 0 1 0 6.58725 -5.64622 -2.82311 
665 0 3 0 -7.52829 -4.70518 -2.82311 
666 0 3 0 -5.64622 -4.70518 -2.82311 
667 0 1 0 -3.76414 -4.70518 -2.82311 
668 0 1 0 -1.88207 -4.70518 -2.82311 
669 0 3 0 0 -4.70518 -2.82311 
670 0 2 0 1.88207 -4.70518 -2.82311 
671 0 2 0 3.76414 -4.70518 -2.82311 
672 0 2 0 5.64622 -4.70518 -2.82311 
673 0 1 0 -6.58725 -3.76414 -2.82311 
674 0 3 0 -4.70518 -3.76414 -2.82311 
675 0 1 0 -2.82311 -3.76414 -2.82311 
676 0 3 0 -0.941036 -3.76414 -2.82311 
677 0 3 0 0.941036 -3.76414 -2.82311 
678 0 1 0 2.82311 -3.76414 -2.82311 
679 0 1 0 4.70518 -3.76414 -2.82311 
680 0 3 0 6.58725 -3.76414 -2.82311 
681 0 1 0 -7.52829 -2.82311 -2.82311 
682 0 1 0 -5.64622 -2.82311 -2.82311 
683 0 2 0 -3.76414 -2.82311 -2.82311 
684 0 1 0 -1.88207 -2.82311 -2.82311 
685 0 1 0 0 -2.82311 -2.82311 
686 0 3 0 1.88207 -2.82311 -2.82311 
687 0 1 0 3.76414 -2.82311 -2.82311 
688 0 3 0 5.64622 -2.82311 -2.82311 
689 0 3 0 -6.58725 -1.88207 -2.82311 
690 0 3 0 -4.70518 -1.88207 -2.82311 
691 0 2 0 -2.82311 -1.88207 -2.82311 
692 0 1 0 -0.941036 -1.88207 -2.82311 
693 0 2 0 0.941036 -1.88207 -2.82311 
694 0 2 0 2.82311 -1.88207 -2.82311 
695 0 3 0 4.70518 -1.88207 -2.82311 
696 0 2 0 6.58725 -1.88207 -2.82311 
697 0 1 0 -7.52829 -0.941036 -2.82311 
698 0 3 0 -5.64622 -0.941036 -2.82311 
699 0 2 0 -3.76414 -0.941036 -2.82311 
700 0 3 0 -1.88207 -0.941036 -2.82311 
701 0 1 0 0 -0.941036 -2.82311 
702 0 3 0 1.88207 -0.941036 -2.82311 
703 0 3 0 3.76414 -0.941036 -2.82311 
704 0 3 0 5.64622 -0.941036 -2.82311 
705 0 3 0 -6.58725 0 -2.82311 
706 0 1 0 -4.70518 0 -2.82311 
707 0 3 0 -2.82311 0 -2.82311 
708 0 2 0 -0.941036 0 -2.82311 
709 0 3 0 0.941036 0 -2.82311 
710 0 1 0 2.82311 0 -2.82311 
711 0 2 0 4.70518 0 -2.82311 
712 0 3 0 6.58725 0 -2.82311 
713 0 3 0 -7.52829 0.941036 -2.82311 
714 0 2 0 -5.64622 0.941036 -2.82311 
715 0 2 0 -3.76414 0.941036 -2.82311 
716 0 3 0 -1.88207 0.941036 -2.82311 
717 0 3 0 0 0.941036 -2.82311 
718 0 1 0 1.88207 0.941036 -2.82311 
719 0 2 0 3.76414 0.941036 -2.82311 
720 0 1 0 5.64622 0.941036 -2.82311 
721 0 3 0 -6.58725 1.88207 -2.82311 
722 0 2 0 -4.70518 1.88207 -2.82311 
723 0 2 0 -2.82311 1.88207 -2.82311 
724 0 2 0 -0.941036 1.88207 -2.82311 
725 0 1 0 0.941036 1.88207 -2.82311 
726 0 1 0 2.82311 1.88207 -2.82311 
727 0 1 0 4.70518 1.88207 -2.82311 
728 0 3 0 6.58725 1.88207 -2.82311 
729 0 1 0 -7.52829 2.82311 -2.82311 
730 0 1 0 -5.64622 2.82311 -2.82311 
731 0 1 0 -3.76414 2.82311 -2.82311 
732 0 2 0 -1.88207 2.82311 -2.82311 
733 0 1 0 0 2.82311 -2.82311 
734 0 2 0 1.88207 2.82311 -2.82311 
735 0 1 0 3.76414 2.82311 -2.82311 
736 0 2 0 5.64622 2.82311 -2.82311 
737 0 2 0 -6.58725 3.76414 -2.82311 
738 0 2 0 -4.70518 3.76414 -2.82311 
739 0 3 0 -2.82311 3.76414 -2.82311 
740 0 3 0 -0.941036 3.76414 -2.82311 
741 0 2 0 0.941036 3.76414 -2.82311 
742 0 1 0 2.82311 3.76414 -2.82311 
743 0 1 0 4.70518 3.76414 -2.82311 
744 0 3 0 6.58725 3.76414 -2.82311 
745 0 2 0 -7.52829 4.70518 -2.82311 
746 0 3 0 -5.64622 4.70518 -2.82311 
747 0 1 0 -3.76414 4.70518 -2.82311 
748 0 2 0 -1.88207 4.70518 -2.82311 
749 0 2 0 0 4.70518 -2.82311 
750 0 1 0 1.88207 4.70518 -2.82311 
751 0 3 0 3.76414 4.70518 -2.82311 
752 0 1 0 5.64622 4.70518 -2.82311 
753 0 3 0 -6.58725 5.64622 -2.82311 
754 0 3 0 -4.70518 5.64622 -2.82311 
755 0 2 0 -2.82311 5.64622 -2.82311 
756 0 2 0 -0.941036 5.64622 -2.82311 
757 0 1 0 0.941036 5.64622 -2.82311 
758 0 3 0 2.82311 5.64622 -2.82311 
759 0 2 0 4.70518 5.64622 -2.82311 
760 0 3 0 6.58725 5.64622 -2.82311 
761 0 2 0 -7.52829 6.58725 -2.82311 
762 0 1 0 -5.64622 6.58725 -2.82311 
763 0 3 0 -3.76414 6.58725 -2.82311 
764 0 2 0 -1.88207 6.58725 -2.82311 
765 0 3 0 0 6.58725 -2.82311 
766 0 1 0 1.88207 6.58725 -2.82311 
767 0 3 0 3.76414 6.58725 -2.82311 
768 0 1 0 5.64622 6.58725 -2.82311 
769 0 3 0 -7.52829 -7.52829 -1.88207 
770 0 1 0 -5.64622 -7.52829 -1.88207 
771 0 1 0 -3.76414 -7.52829 -1.88207 
772 0 3 0 -1.88207 -7.52829 -1.88207 
773 0 2 0 0 -7.52829 -1.88207 
774 0 3 0 1.88207 -7.52829 -1.88207 
775 0 1 0 3.76414 -7.52829 -1.88207 
776 0 1 0 5.64622 -7.52829 -1.88207 
777 0 1 0 -6.58725 -6.58725 -1.88207 
778 0 1 0 -4.70518 -6.58725 -1.88207 
779 0 2 0 -2.82311 -6.58725 -1.88207 
780 0 3 0 -0.941036 -6.58725 -1.88207 
781 0 3 0 0.941036 -6.58725 -1.88207 
782 0 1 0 2.82311 -6.58725 -1.88207 
783 0 3 0 4.70518 -6.58725 -1.88207 
784 0 1 0 6.58725 -6.58725 -1.88207 
785 0 2 0 -7.52829 -5.64622 -1.88207 
786 0 3 0 -5.64622 -5.64622 -1.88207 
787 0 3 0 -3.76414 -5.64622 -1.88207 
788 0 3 0 -1.88207 -5.64622 -1.88207 
789 0 1 0 0 -5.64622 -1.88207 
790 0 2 0 1.88207 -5.64622 -1.88207 
791 0 2 0 3.76414 -5.64622 -1.88207 
792 0 2 0 5.64622 -5.64622 -1.88207 
793 0 1 0 -6.58725 -4.70518 -1.88207 
794 0 1 0 -4.70518 -4.70518 -1.88207 
795 0 3 0 -2.82311 -4.70518 -1.88207 
796 0 2 0 -0.941036 -4.70518 -1.88207 
797 0 3 0 0.941036 -4.70518 -1.88207 
798 0 3 0 2.82311 -4.70518 -1.88207 
799 0 1 0 4.70518 -4.70518 -1.88207 
800 0 2 0 6.58725 -4.70518 -1.88207 
801 0 1 0 -7.52829 -3.76414 -1.88207 
802 0 3 0 -5.64622 -3.76414 -1.88207 
803 0 2 0 -3.76414 -3.76414 -1.88207 
804 0 1 0 -1.88207 -3.76414 -1.88207 
805 0 2 0 0 -3.76414 -1.88207 
806 0 3 0 1.88207 -3.76414 -1.88207 
807 0 1 0 3.76414 -3.76414 -1.88207 
808 0 3 0 5.64622 -3.76414 -1.88207 
809 0 1 0 -6.58725 -2.82311 -1.88207 
810 0 3 0 -4.70518 -2.82311 -1.88207 
811 0 2 0 -2.82311 -2.82311 -1.88207 
812 0 3 0 -0.941036 -2.82311 -1.88207 
813 0 3 0 0.941036 -2.82311 -1.88207 
814 0 2 0 2.82311 -2.82311 -1.88207 
815 0 2 0 4.70518 -2.82311 -1.88207 
816 0 1 0 6.58725 -2.82311 -1.88207 
817 0 3 0 -7.52829 -1.88207 -1.88207 
818 0 3 0 -5.64622 -1.88207 -1.88207 