LAMMPS Description

6750 atoms
7155 bonds
12150 angles
17685 dihedrals
4995 impropers

10 atom types
14 bond types
22 angle types
12 dihedral types
7 improper types

0 81 xlo xhi
0 34.5 ylo yhi
0 49.5 zlo zhi

Masses

1 28.0855
2 15.9994
3 12.011
4 1.008
5 12.011
6 12.011
7 15.9994
8 12.011
9 15.9994
10 15.9994

Nonbond Coeffs

1  0.3099999744000021       4.454493652010854    
2  0.1590998992200333       3.260689407277043    
3  9.0300015734114558E-02   3.207235441894934    
4  4.1999941717803052E-02   2.369790780081914    
5  4.9999893826371399E-02   3.634867889734813    
6  4.9999893826371399E-02   3.634867889734813    
7  0.1591001638567846       2.850875897664472    
8  0.1409994499536003       3.331963586490748    
9  0.1591001896348901       2.708331722656194    
0  0.1591001638567846       2.850875897664472    

Bond Coeffs

1 490 1.63
2 232 1.878
3 340 1.09
4 268 1.529
5 450 1.37
6 440 1.383
7 370 1.08
8 460 1.485
9 365 1.4
10 350 1.319
11 640 1.193
12 386 1.46
13 365 1.38
14 390 1.407

Angle Coeffs

1 127 109.47
2 31 120
2 33 107.8
4 37.5 110.7
5 45 109.47
6 50 109.47
7 55 120
8 55.5 109.47
9 57 110
10 58.35 112.7
11 60 110
12 61 108
13 7.5 149
14 70 117
15 70 118
16 70 120
17 70 121
18 79 113
19 80 116
20 81 122.5
21 85 105.47
22 86 121.1

Dihedral Coeffs

1 0.09 1 3
2 0.15 1 3
3 0.27 -1 3
4 0.27 1 3
5 0.5 -1 2
6 0.55 1 1
7 0.8 -1 2
8 1.4 -1 2
9 2.5 -1 2
10 2.8 -1 2
11 3 -1 2
12 3.1 -1 2

Improper Coeffs

1 100 0
2 130 0
3 140 0
4 15 0
5 150 0
6 75 0
7 90 0

Atoms

1 0 1 0.301 -0.996 3.039 1.774
2 0 2 -0.248 -0.16 3.698 0.514
3 0 1 0.301 -0.082 3.165 -1.044
4 0 2 -0.248 -1.109 1.417 1.527
5 0 3 -0.098 -2.729 3.77 1.862
6 0 3 -0.098 -0.013 3.33 3.345
7 0 1 0.301 -1.65 0.002 2.157
8 0 2 -0.248 -0.84 -1.212 1.407
9 0 3 -0.098 -3.497 -0.208 1.831
10 0 3 -0.098 -1.214 -0.044 3.98
11 0 1 0.301 -0.745 -2.04 -0.01
12 0 2 -0.248 -0.348 -1.075 -1.277
13 0 3 -0.098 -2.4 -2.85 -0.363
14 0 3 -0.098 0.679 -3.258 0.179
15 0 1 0.301 -0.672 0.333 -2.05
16 0 2 -0.248 -0.269 1.537 -1.021
17 0 3 -0.098 1.615 3.558 -1.754
18 0 3 -0.098 -1.458 3.934 -2.064
19 0 4 0.037 -3.715 -1.273 1.737
20 0 4 0.037 -3.731 0.249 0.87
21 0 4 0.037 -1.508 -1.001 4.411
22 0 4 0.037 -1.733 0.755 4.509
23 0 4 0.037 -0.14 0.087 4.11
24 0 4 0.037 -3.246 3.296 2.696
25 0 4 0.037 -2.655 4.826 2.124
26 0 4 0.037 -0.54 2.907 4.2
27 0 4 0.037 0.123 4.4 3.508
28 0 4 0.037 0.965 2.857 3.265
29 0 4 0.037 1.658 3.146 -2.762
30 0 4 0.037 1.706 4.64 -1.856
31 0 4 0.037 -1.223 3.841 -3.125
32 0 4 0.037 -1.562 4.991 -1.819
33 0 4 0.037 -2.405 3.426 -1.885
34 0 4 0.037 0.932 -3.656 -0.804
35 0 4 0.037 0.338 -4.099 0.783
36 0 4 0.037 -2.334 -3.459 -1.264
37 0 4 0.037 -3.165 -2.087 -0.51
38 0 4 0.037 -2.692 -3.485 0.474
39 0 3 -0.098 -2.503 0.431 -2.444
40 0 3 -0.098 0.458 0.446 -3.555
41 0 4 0.037 0.454 1.473 -3.921
42 0 4 0.037 0.064 -0.186 -4.352
43 0 4 0.037 -2.72 1.344 -3
44 0 4 0.037 -3.082 0.434 -1.52
45 0 4 0.037 -2.802 -0.427 -3.044
46 0 5 -0.128 13.021 -3.242 -2.681
47 0 6 0.002 13.986 -2.534 -1.93
48 0 5 -0.128 13.54 -1.701 -0.881
49 0 5 -0.128 12.172 -1.584 -0.588
50 0 5 0.252 11.216 -2.294 -1.332
51 0 5 -0.128 11.651 -3.124 -2.387
52 0 4 0.132 13.314 -3.893 -3.491
53 0 4 0.132 14.24 -1.132 -0.286
54 0 4 0.132 11.851 -0.94 0.218
55 0 4 0.132 10.948 -3.676 -2.994
56 0 6 0.002 15.461 -2.666 -2.238
57 0 5 -0.128 16.424 -2.598 -1.204
58 0 5 -0.128 17.794 -2.719 -1.488
59 0 5 -0.128 18.224 -2.911 -2.81
60 0 5 -0.128 17.282 -2.982 -3.847
61 0 5 -0.128 15.91 -2.86 -3.564
62 0 4 0.132 16.126 -2.458 -0.175
63 0 4 0.132 18.518 -2.664 -0.689
64 0 4 0.132 19.277 -3.003 -3.029
65 0 4 0.132 17.611 -3.129 -4.866
66 0 4 0.132 15.213 -2.914 -4.386
67 0 7 -0.649 9.798 -2.125 -0.959
68 0 8 0.701 8.778 -2.94 -1.288
69 0 9 -0.549 8.91 -3.948 -1.918
70 0 5 0.002 7.457 -2.424 -0.752
71 0 5 -0.128 7.362 -1.259 0.041
72 0 5 -0.128 6.113 -0.814 0.504
73 0 5 0.182 4.938 -1.515 0.187
74 0 5 -0.128 5.03 -2.683 -0.602
75 0 5 -0.128 6.279 -3.131 -1.064
76 0 4 0.132 8.245 -0.693 0.3
77 0 4 0.132 6.054 0.082 1.106
78 0 4 0.132 4.15 -3.251 -0.864
79 0 4 0.132 6.326 -4.026 -1.668
80 0 10 -0.369 3.739 -0.99 0.685
81 0 3 0.092 2.517 -1.406 0.094
82 0 3 0.092 1.928 -2.624 0.838
83 0 4 0.037 2.624 -1.591 -0.976
84 0 4 0.037 1.83 -0.563 0.176
85 0 4 0.037 1.701 -2.335 1.865
86 0 4 0.037 2.689 -3.399 0.923
87 0 5 -0.128 13.565 1.482 -7.146
88 0 6 0.002 14.466 0.782 -6.315
89 0 5 -0.128 13.949 0.021 -5.245
90 0 5 -0.128 12.565 -0.04 -5.015
91 0 5 0.252 11.668 0.654 -5.845
92 0 5 -0.128 12.18 1.42 -6.914
93 0 4 0.132 13.923 2.074 -7.976
94 0 4 0.132 14.608 -0.514 -4.578
95 0 4 0.132 12.187 -0.623 -4.188
96 0 4 0.132 11.532 1.979 -7.574
97 0 6 0.002 15.952 0.851 -6.561
98 0 5 -0.128 16.759 -0.299 -6.414
99 0 5 -0.128 18.145 -0.233 -6.636
100 0 5 -0.128 18.741 0.982 -7.008
101 0 5 -0.128 17.95 2.132 -7.159
102 0 5 -0.128 16.564 2.068 -6.937
103 0 4 0.132 16.323 -1.246 -6.135
104 0 4 0.132 18.751 -1.118 -6.519
105 0 4 0.132 19.806 1.033 -7.176
106 0 4 0.132 18.408 3.069 -7.443
107 0 4 0.132 15.98 2.968 -7.053
108 0 7 -0.649 10.231 0.537 -5.534
109 0 8 0.701 9.194 0.994 -6.26
110 0 9 -0.549 9.304 1.553 -7.311
111 0 5 0.002 7.874 0.699 -5.575
112 0 5 -0.128 7.802 0.032 -4.332
113 0 5 -0.128 6.558 -0.214 -3.732
114 0 5 0.182 5.367 0.192 -4.354
115 0 5 -0.128 5.432 0.857 -5.597
116 0 5 -0.128 6.678 1.107 -6.199
117 0 4 0.132 8.697 -0.294 -3.823
118 0 4 0.132 6.516 -0.718 -2.777
119 0 4 0.132 4.536 1.182 -6.104
120 0 4 0.132 6.71 1.619 -7.15
121 0 10 -0.369 4.186 -0.101 -3.671
122 0 3 0.092 2.95 0.336 -4.209
123 0 3 0.092 1.879 0 -3.171
124 0 4 0.037 2.742 -0.167 -5.154
125 0 4 0.037 2.962 1.413 -4.381
126 0 4 0.037 2.195 0.462 -2.236
127 0 4 0.037 1.886 -1.076 -3.001
128 0 5 -0.128 14.918 3.185 -3.794
129 0 6 0.002 15.698 2.349 -2.966
130 0 5 -0.128 15.055 1.627 -1.938
131 0 5 -0.128 13.667 1.73 -1.752
132 0 5 0.252 12.891 2.551 -2.585
133 0 5 -0.128 13.529 3.287 -3.607
134 0 4 0.132 15.372 3.754 -4.592
135 0 4 0.132 15.617 0.983 -1.277
136 0 4 0.132 13.189 1.174 -0.96
137 0 4 0.132 12.973 3.941 -4.263
138 0 6 0.002 17.185 2.221 -3.183
139 0 5 -0.128 17.827 0.971 -3.029
140 0 5 -0.128 19.211 0.847 -3.234
141 0 5 -0.128 19.972 1.97 -3.597
142 0 5 -0.128 19.347 3.217 -3.754
143 0 5 -0.128 17.963 3.343 -3.548
144 0 4 0.132 17.264 0.09 -2.759
145 0 4 0.132 19.688 -0.113 -3.115
146 0 4 0.132 21.035 1.874 -3.757
147 0 4 0.132 19.931 4.082 -4.035
148 0 4 0.132 17.508 4.314 -3.673
149 0 7 -0.649 11.437 2.588 -2.34
150 0 8 0.701 10.491 3.026 -3.191
151 0 9 -0.549 10.721 3.424 -4.294
152 0 5 0.002 9.108 2.947 -2.575
153 0 5 -0.128 8.873 2.422 -1.285
154 0 5 -0.128 7.569 2.374 -0.763
155 0 5 0.182 6.476 2.843 -1.512
156 0 5 -0.128 6.713 3.367 -2.805
157 0 5 -0.128 8.015 3.418 -3.327
158 0 4 0.132 9.69 2.051 -0.684
159 0 4 0.132 7.407 1.973 0.228
160 0 4 0.132 5.907 3.736 -3.421
161 0 4 0.132 8.17 3.82 -4.317
162 0 10 -0.369 5.206 2.759 -0.919
163 0 3 0.092 4.102 3.192 -1.698
164 0 3 0.092 2.791 3.013 -0.923
165 0 4 0.037 4.046 2.614 -2.621
166 0 4 0.037 4.217 4.245 -1.959
167 0 4 0.037 2.853 3.538 0.031
168 0 4 0.037 2.661 1.958 -0.687
169 0 5 -0.128 -14.523 0.961 4.952
170 0 6 0.002 -15.522 1.275 4.005
171 0 5 -0.128 -15.154 2 2.851
172 0 5 -0.128 -13.824 2.402 2.652
173 0 5 0.252 -12.833 2.092 3.599
174 0 5 -0.128 -13.192 1.364 4.753
175 0 4 0.132 -14.762 0.397 5.842
176 0 4 0.132 -15.887 2.265 2.103
177 0 4 0.132 -13.56 2.956 1.763
178 0 4 0.132 -12.453 1.093 5.493
179 0 6 0.002 -16.955 0.848 4.218
180 0 5 -0.128 -17.755 0.437 3.127
181 0 5 -0.128 -19.089 0.042 3.324
182 0 5 -0.128 -19.641 0.053 4.614
183 0 5 -0.128 -18.859 0.458 5.708
184 0 5 -0.128 -17.525 0.853 5.512
185 0 4 0.132 -17.354 0.412 2.125
186 0 4 0.132 -19.688 -0.271 2.484
187 0 4 0.132 -20.666 -0.253 4.766
188 0 4 0.132 -19.284 0.464 6.701
189 0 4 0.132 -16.949 1.164 6.369
190 0 7 -0.649 -11.458 2.543 3.319
191 0 8 0.701 -10.475 2.719 4.221
192 0 9 -0.549 -10.617 2.564 5.398
193 0 5 0.002 -9.185 3.154 3.551
194 0 5 -0.128 -9.06 3.256 2.147
195 0 5 -0.128 -7.842 3.645 1.566
196 0 5 0.182 -6.728 3.938 2.379
197 0 5 -0.128 -6.853 3.852 3.776
198 0 5 -0.128 -8.071 3.46 4.358
199 0 4 0.132 -9.896 3.034 1.502
200 0 4 0.132 -7.772 3.718 0.49
201 0 4 0.132 -6.006 4.079 4.406
202 0 4 0.132 -8.143 3.392 5.434
203 0 10 -0.369 -5.488 4.296 1.846
204 0 3 0.092 -5.046 3.459 0.786
205 0 3 0.092 -3.539 3.618 0.559
206 0 4 0.037 -5.586 3.679 -0.135
207 0 4 0.037 -5.224 2.41 1.026
208 0 4 0.037 -3.355 4.487 -0.073
209 0 4 0.037 -3.228 2.742 -0.011
210 0 5 -0.128 -16.383 -2.736 3.34
211 0 6 0.002 -16.785 -3.105 4.642
212 0 5 -0.128 -15.81 -3.146 5.663
213 0 5 -0.128 -14.472 -2.82 5.388
214 0 5 0.252 -14.077 -2.447 4.093
215 0 5 -0.128 -15.044 -2.41 3.067
216 0 4 0.132 -17.097 -2.687 2.532
217 0 4 0.132 -16.075 -3.432 6.67
218 0 4 0.132 -13.74 -2.855 6.182
219 0 4 0.132 -14.778 -2.139 2.055
220 0 6 0.002 -18.227 -3.444 4.935
221 0 5 -0.128 -18.82 -3.069 6.162
222 0 5 -0.128 -20.165 -3.378 6.431
223 0 5 -0.128 -20.933 -4.064 5.478
224 0 5 -0.128 -20.357 -4.444 4.256
225 0 5 -0.128 -19.013 -4.136 3.985
226 0 4 0.132 -18.256 -2.533 6.909
227 0 4 0.132 -20.606 -3.085 7.371
228 0 4 0.132 -21.966 -4.3 5.686
229 0 4 0.132 -20.948 -4.973 3.522
230 0 4 0.132 -18.595 -4.444 3.039
231 0 7 -0.649 -12.657 -2.113 3.875
232 0 8 0.701 -12.168 -1.354 2.876
233 0 9 -0.549 -12.854 -0.813 2.059
234 0 5 0.002 -10.657 -1.256 2.933
235 0 5 -0.128 -9.877 -1.99 3.853
236 0 5 -0.128 -8.476 -1.861 3.863
237 0 5 0.182 -7.83 -0.998 2.961
238 0 5 -0.128 -8.612 -0.267 2.038
239 0 5 -0.128 -10.009 -0.396 2.027
240 0 4 0.132 -10.344 -2.659 4.56
241 0 4 0.132 -7.893 -2.429 4.574
242 0 4 0.132 -8.158 0.402 1.323
243 0 4 0.132 -10.586 0.177 1.315
244 0 10 -0.369 -6.432 -0.908 3.032
245 0 3 0.092 -5.872 0.33 2.62
246 0 3 0.092 -4.373 0.385 2.949
247 0 4 0.037 -6.367 1.146 3.148
248 0 4 0.037 -6.017 0.48 1.55
249 0 4 0.037 -4.187 -0.11 3.902
250 0 4 0.037 -4.113 1.432 3.102
251 0 1 0.301 26.004 3.039 1.774
252 0 2 -0.248 26.84 3.698 0.514
253 0 1 0.301 26.918 3.165 -1.044
254 0 2 -0.248 25.891 1.417 1.527
255 0 3 -0.098 24.271 3.77 1.862
256 0 3 -0.098 26.987 3.33 3.345
257 0 1 0.301 25.35 0.002 2.157
258 0 2 -0.248 26.16 -1.212 1.407
259 0 3 -0.098 23.503 -0.208 1.831
260 0 3 -0.098 25.786 -0.044 3.98
261 0 1 0.301 26.255 -2.04 -0.01
262 0 2 -0.248 26.652 -1.075 -1.277
263 0 3 -0.098 24.6 -2.85 -0.363
264 0 3 -0.098 27.679 -3.258 0.179
265 0 1 0.301 26.328 0.333 -2.05
266 0 2 -0.248 26.731 1.537 -1.021
267 0 3 -0.098 28.615 3.558 -1.754
268 0 3 -0.098 25.542 3.934 -2.064
269 0 4 0.037 23.285 -1.273 1.737
270 0 4 0.037 23.269 0.249 0.87
271 0 4 0.037 25.492 -1.001 4.411
272 0 4 0.037 25.267 0.755 4.509
273 0 4 0.037 26.86 0.087 4.11
274 0 4 0.037 23.754 3.296 2.696
275 0 4 0.037 24.345 4.826 2.124
276 0 4 0.037 26.46 2.907 4.2
277 0 4 0.037 27.123 4.4 3.508
278 0 4 0.037 27.965 2.857 3.265
279 0 4 0.037 28.658 3.146 -2.762
280 0 4 0.037 28.706 4.64 -1.856
281 0 4 0.037 25.777 3.841 -3.125
282 0 4 0.037 25.438 4.991 -1.819
283 0 4 0.037 24.595 3.426 -1.885
284 0 4 0.037 27.932 -3.656 -0.804
285 0 4 0.037 27.338 -4.099 0.783
286 0 4 0.037 24.666 -3.459 -1.264
287 0 4 0.037 23.835 -2.087 -0.51
288 0 4 0.037 24.308 -3.485 0.474
289 0 3 -0.098 24.497 0.431 -2.444
290 0 3 -0.098 27.458 0.446 -3.555
291 0 4 0.037 27.454 1.473 -3.921
292 0 4 0.037 27.064 -0.186 -4.352
293 0 4 0.037 24.28 1.344 -3
294 0 4 0.037 23.918 0.434 -1.52
295 0 4 0.037 24.198 -0.427 -3.044
296 0 5 -0.128 40.021 -3.242 -2.681
297 0 6 0.002 40.986 -2.534 -1.93
298 0 5 -0.128 40.54 -1.701 -0.881
299 0 5 -0.128 39.172 -1.584 -0.588
300 0 5 0.252 38.216 -2.294 -1.332
301 0 5 -0.128 38.651 -3.124 -2.387
302 0 4 0.132 40.314 -3.893 -3.491
303 0 4 0.132 41.24 -1.132 -0.286
304 0 4 0.132 38.851 -0.94 0.218
305 0 4 0.132 37.948 -3.676 -2.994
306 0 6 0.002 42.461 -2.666 -2.238
307 0 5 -0.128 43.424 -2.598 -1.204
308 0 5 -0.128 44.794 -2.719 -1.488
309 0 5 -0.128 45.224 -2.911 -2.81
310 0 5 -0.128 44.282 -2.982 -3.847
311 0 5 -0.128 42.91 -2.86 -3.564
312 0 4 0.132 43.126 -2.458 -0.175
313 0 4 0.132 45.518 -2.664 -0.689
314 0 4 0.132 46.277 -3.003 -3.029
315 0 4 0.132 44.611 -3.129 -4.866
316 0 4 0.132 42.213 -2.914 -4.386
317 0 7 -0.649 36.798 -2.125 -0.959
318 0 8 0.701 35.778 -2.94 -1.288
319 0 9 -0.549 35.91 -3.948 -1.918
320 0 5 0.002 34.457 -2.424 -0.752
321 0 5 -0.128 34.362 -1.259 0.041
322 0 5 -0.128 33.113 -0.814 0.504
323 0 5 0.182 31.938 -1.515 0.187
324 0 5 -0.128 32.03 -2.683 -0.602
325 0 5 -0.128 33.279 -3.131 -1.064
326 0 4 0.132 35.245 -0.693 0.3
327 0 4 0.132 33.054 0.082 1.106
328 0 4 0.132 31.15 -3.251 -0.864
329 0 4 0.132 33.326 -4.026 -1.668
330 0 10 -0.369 30.739 -0.99 0.685
331 0 3 0.092 29.517 -1.406 0.094
332 0 3 0.092 28.928 -2.624 0.838
333 0 4 0.037 29.624 -1.591 -0.976
334 0 4 0.037 28.83 -0.563 0.176
335 0 4 0.037 28.701 -2.335 1.865
336 0 4 0.037 29.689 -3.399 0.923
337 0 5 -0.128 40.565 1.482 -7.146
338 0 6 0.002 41.466 0.782 -6.315
339 0 5 -0.128 40.949 0.021 -5.245
340 0 5 -0.128 39.565 -0.04 -5.015
341 0 5 0.252 38.668 0.654 -5.845
342 0 5 -0.128 39.18 1.42 -6.914
343 0 4 0.132 40.923 2.074 -7.976
344 0 4 0.132 41.608 -0.514 -4.578
345 0 4 0.132 39.187 -0.623 -4.188
346 0 4 0.132 38.532 1.979 -7.574
347 0 6 0.002 42.952 0.851 -6.561
348 0 5 -0.128 43.759 -0.299 -6.414
349 0 5 -0.128 45.145 -0.233 -6.636
350 0 5 -0.128 45.741 0.982 -7.008
351 0 5 -0.128 44.95 2.132 -7.159
352 0 5 -0.128 43.564 2.068 -6.937
353 0 4 0.132 43.323 -1.246 -6.135
354 0 4 0.132 45.751 -1.118 -6.519
355 0 4 0.132 46.806 1.033 -7.176
356 0 4 0.132 45.408 3.069 -7.443
357 0 4 0.132 42.98 2.968 -7.053
358 0 7 -0.649 37.231 0.537 -5.534
359 0 8 0.701 36.194 0.994 -6.26
360 0 9 -0.549 36.304 1.553 -7.311
361 0 5 0.002 34.874 0.699 -5.575
362 0 5 -0.128 34.802 0.032 -4.332
363 0 5 -0.128 33.558 -0.214 -3.732
364 0 5 0.182 32.367 0.192 -4.354
365 0 5 -0.128 32.432 0.857 -5.597
366 0 5 -0.128 33.678 1.107 -6.199
367 0 4 0.132 35.697 -0.294 -3.823
368 0 4 0.132 33.516 -0.718 -2.777
369 0 4 0.132 31.536 1.182 -6.104
370 0 4 0.132 33.71 1.619 -7.15
371 0 10 -0.369 31.186 -0.101 -3.671
372 0 3 0.092 29.95 0.336 -4.209
373 0 3 0.092 28.879 0 -3.171
374 0 4 0.037 29.742 -0.167 -5.154
375 0 4 0.037 29.962 1.413 -4.381
376 0 4 0.037 29.195 0.462 -2.236
377 0 4 0.037 28.886 -1.076 -3.001
378 0 5 -0.128 41.918 3.185 -3.794
379 0 6 0.002 42.698 2.349 -2.966
380 0 5 -0.128 42.055 1.627 -1.938
381 0 5 -0.128 40.667 1.73 -1.752
382 0 5 0.252 39.891 2.551 -2.585
383 0 5 -0.128 40.529 3.287 -3.607
384 0 4 0.132 42.372 3.754 -4.592
385 0 4 0.132 42.617 0.983 -1.277
386 0 4 0.132 40.189 1.174 -0.96
387 0 4 0.132 39.973 3.941 -4.263
388 0 6 0.002 44.185 2.221 -3.183
389 0 5 -0.128 44.827 0.971 -3.029
390 0 5 -0.128 46.211 0.847 -3.234
391 0 5 -0.128 46.972 1.97 -3.597
392 0 5 -0.128 46.347 3.217 -3.754
393 0 5 -0.128 44.963 3.343 -3.548
394 0 4 0.132 44.264 0.09 -2.759
395 0 4 0.132 46.688 -0.113 -3.115
396 0 4 0.132 48.035 1.874 -3.757
397 0 4 0.132 46.931 4.082 -4.035
398 0 4 0.132 44.508 4.314 -3.673
399 0 7 -0.649 38.437 2.588 -2.34
400 0 8 0.701 37.491 3.026 -3.191
401 0 9 -0.549 37.721 3.424 -4.294
402 0 5 0.002 36.108 2.947 -2.575
403 0 5 -0.128 35.873 2.422 -1.285
404 0 5 -0.128 34.569 2.374 -0.763
405 0 5 0.182 33.476 2.843 -1.512
406 0 5 -0.128 33.713 3.367 -2.805
407 0 5 -0.128 35.015 3.418 -3.327
408 0 4 0.132 36.69 2.051 -0.684
409 0 4 0.132 34.407 1.973 0.228
410 0 4 0.132 32.907 3.736 -3.421
411 0 4 0.132 35.17 3.82 -4.317
412 0 10 -0.369 32.206 2.759 -0.919
413 0 3 0.092 31.102 3.192 -1.698
414 0 3 0.092 29.791 3.013 -0.923
415 0 4 0.037 31.046 2.614 -2.621
416 0 4 0.037 31.217 4.245 -1.959
417 0 4 0.037 29.853 3.538 0.031
418 0 4 0.037 29.661 1.958 -0.687
419 0 5 -0.128 12.477 0.961 4.952
420 0 6 0.002 11.478 1.275 4.005
421 0 5 -0.128 11.846 2 2.851
422 0 5 -0.128 13.176 2.402 2.652
423 0 5 0.252 14.167 2.092 3.599
424 0 5 -0.128 13.808 1.364 4.753
425 0 4 0.132 12.238 0.397 5.842
426 0 4 0.132 11.113 2.265 2.103
427 0 4 0.132 13.44 2.956 1.763
428 0 4 0.132 14.547 1.093 5.493
429 0 6 0.002 10.045 0.848 4.218
430 0 5 -0.128 9.245 0.437 3.127
431 0 5 -0.128 7.911 0.042 3.324
432 0 5 -0.128 7.359 0.053 4.614
433 0 5 -0.128 8.141 0.458 5.708
434 0 5 -0.128 9.475 0.853 5.512
435 0 4 0.132 9.646 0.412 2.125
436 0 4 0.132 7.312 -0.271 2.484
437 0 4 0.132 6.334 -0.253 4.766
438 0 4 0.132 7.716 0.464 6.701
439 0 4 0.132 10.051 1.164 6.369
440 0 7 -0.649 15.542 2.543 3.319
441 0 8 0.701 16.525 2.719 4.221
442 0 9 -0.549 16.383 2.564 5.398
443 0 5 0.002 17.815 3.154 3.551
444 0 5 -0.128 17.94 3.256 2.147
445 0 5 -0.128 19.158 3.645 1.566
446 0 5 0.182 20.272 3.938 2.379
447 0 5 -0.128 20.147 3.852 3.776
448 0 5 -0.128 18.929 3.46 4.358
449 0 4 0.132 17.104 3.034 1.502
450 0 4 0.132 19.228 3.718 0.49
451 0 4 0.132 20.994 4.079 4.406
452 0 4 0.132 18.857 3.392 5.434
453 0 10 -0.369 21.512 4.296 1.846
454 0 3 0.092 21.954 3.459 0.786
455 0 3 0.092 23.461 3.618 0.559
456 0 4 0.037 21.414 3.679 -0.135
457 0 4 0.037 21.776 2.41 1.026
458 0 4 0.037 23.645 4.487 -0.073
459 0 4 0.037 23.772 2.742 -0.011
460 0 5 -0.128 10.617 -2.736 3.34
461 0 6 0.002 10.215 -3.105 4.642
462 0 5 -0.128 11.19 -3.146 5.663
463 0 5 -0.128 12.528 -2.82 5.388
464 0 5 0.252 12.923 -2.447 4.093
465 0 5 -0.128 11.956 -2.41 3.067
466 0 4 0.132 9.903 -2.687 2.532
467 0 4 0.132 10.925 -3.432 6.67
468 0 4 0.132 13.26 -2.855 6.182
469 0 4 0.132 12.222 -2.139 2.055
470 0 6 0.002 8.773 -3.444 4.935
471 0 5 -0.128 8.18 -3.069 6.162
472 0 5 -0.128 6.835 -3.378 6.431
473 0 5 -0.128 6.067 -4.064 5.478
474 0 5 -0.128 6.643 -4.444 4.256
475 0 5 -0.128 7.987 -4.136 3.985
476 0 4 0.132 8.744 -2.533 6.909
477 0 4 0.132 6.394 -3.085 7.371
478 0 4 0.132 5.034 -4.3 5.686
479 0 4 0.132 6.052 -4.973 3.522
480 0 4 0.132 8.405 -4.444 3.039
481 0 7 -0.649 14.343 -2.113 3.875
482 0 8 0.701 14.832 -1.354 2.876
483 0 9 -0.549 14.146 -0.813 2.059
484 0 5 0.002 16.343 -1.256 2.933
485 0 5 -0.128 17.123 -1.99 3.853
486 0 5 -0.128 18.524 -1.861 3.863
487 0 5 0.182 19.17 -0.998 2.961
488 0 5 -0.128 18.388 -0.267 2.038
489 0 5 -0.128 16.991 -0.396 2.027
490 0 4 0.132 16.656 -2.659 4.56
491 0 4 0.132 19.107 -2.429 4.574
492 0 4 0.132 18.842 0.402 1.323
493 0 4 0.132 16.414 0.177 1.315
494 0 10 -0.369 20.568 -0.908 3.032
495 0 3 0.092 21.128 0.33 2.62
496 0 3 0.092 22.627 0.385 2.949
497 0 4 0.037 20.633 1.146 3.148
498 0 4 0.037 20.983 0.48 1.55
499 0 4 0.037 22.813 -0.11 3.902
500 0 4 0.037 22.887 1.432 3.102
501 0 1 0.301 53.004 3.039 1.774
502 0 2 -0.248 53.84 3.698 0.514
503 0 1 0.301 53.918 3.165 -1.044
504 0 2 -0.248 52.891 1.417 1.527
505 0 3 -0.098 51.271 3.77 1.862
506 0 3 -0.098 53.987 3.33 3.345
507 0 1 0.301 52.35 0.002 2.157
508 0 2 -0.248 53.16 -1.212 1.407
509 0 3 -0.098 50.503 -0.208 1.831
510 0 3 -0.098 52.786 -0.044 3.98
511 0 1 0.301 53.255 -2.04 -0.01
512 0 2 -0.248 53.652 -1.075 -1.277
513 0 3 -0.098 51.6 -2.85 -0.363
514 0 3 -0.098 54.679 -3.258 0.179
515 0 1 0.301 53.328 0.333 -2.05
516 0 2 -0.248 53.731 1.537 -1.021
517 0 3 -0.098 55.615 3.558 -1.754
518 0 3 -0.098 52.542 3.934 -2.064
519 0 4 0.037 50.285 -1.273 1.737
520 0 4 0.037 50.269 0.249 0.87
521 0 4 0.037 52.492 -1.001 4.411
522 0 4 0.037 52.267 0.755 4.509
523 0 4 0.037 53.86 0.087 4.11
524 0 4 0.037 50.754 3.296 2.696
525 0 4 0.037 51.345 4.826 2.124
526 0 4 0.037 53.46 2.907 4.2
527 0 4 0.037 54.123 4.4 3.508
528 0 4 0.037 54.965 2.857 3.265
529 0 4 0.037 55.658 3.146 -2.762
530 0 4 0.037 55.706 4.64 -1.856
531 0 4 0.037 52.777 3.841 -3.125
532 0 4 0.037 52.438 4.991 -1.819
533 0 4 0.037 51.595 3.426 -1.885
534 0 4 0.037 54.932 -3.656 -0.804
535 0 4 0.037 54.338 -4.099 0.783
536 0 4 0.037 51.666 -3.459 -1.264
537 0 4 0.037 50.835 -2.087 -0.51
538 0 4 0.037 51.308 -3.485 0.474
539 0 3 -0.098 51.497 0.431 -2.444
540 0 3 -0.098 54.458 0.446 -3.555
541 0 4 0.037 54.454 1.473 -3.921
542 0 4 0.037 54.064 -0.186 -4.352
543 0 4 0.037 51.28 1.344 -3
544 0 4 0.037 50.918 0.434 -1.52
545 0 4 0.037 51.198 -0.427 -3.044
546 0 5 -0.128 67.021 -3.242 -2.681
547 0 6 0.002 67.986 -2.534 -1.93
548 0 5 -0.128 67.54 -1.701 -0.881
549 0 5 -0.128 66.172 -1.584 -0.588
550 0 5 0.252 65.216 -2.294 -1.332
551 0 5 -0.128 65.651 -3.124 -2.387
552 0 4 0.132 67.314 -3.893 -3.491
553 0 4 0.132 68.24 -1.132 -0.286
554 0 4 0.132 65.851 -0.94 0.218
555 0 4 0.132 64.948 -3.676 -2.994
556 0 6 0.002 69.461 -2.666 -2.238
557 0 5 -0.128 70.424 -2.598 -1.204
558 0 5 -0.128 71.794 -2.719 -1.488
559 0 5 -0.128 72.224 -2.911 -2.81
560 0 5 -0.128 71.282 -2.982 -3.847
561 0 5 -0.128 69.91 -2.86 -3.564
562 0 4 0.132 70.126 -2.458 -0.175
563 0 4 0.132 72.518 -2.664 -0.689
564 0 4 0.132 73.277 -3.003 -3.029
565 0 4 0.132 71.611 -3.129 -4.866
566 0 4 0.132 69.213 -2.914 -4.386
567 0 7 -0.649 63.798 -2.125 -0.959
568 0 8 0.701 62.778 -2.94 -1.288
569 0 9 -0.549 62.91 -3.948 -1.918
570 0 5 0.002 61.457 -2.424 -0.752
571 0 5 -0.128 61.362 -1.259 0.041
572 0 5 -0.128 60.113 -0.814 0.504
573 0 5 0.182 58.938 -1.515 0.187
574 0 5 -0.128 59.03 -2.683 -0.602
575 0 5 -0.128 60.279 -3.131 -1.064
576 0 4 0.132 62.245 -0.693 0.3
577 0 4 0.132 60.054 0.082 1.106
578 0 4 0.132 58.15 -3.251 -0.864
579 0 4 0.132 60.326 -4.026 -1.668
580 0 10 -0.369 57.739 -0.99 0.685
581 0 3 0.092 56.517 -1.406 0.094
582 0 3 0.092 55.928 -2.624 0.838
583 0 4 0.037 56.624 -1.591 -0.976
584 0 4 0.037 55.83 -0.563 0.176
585 0 4 0.037 55.701 -2.335 1.865
586 0 4 0.037 56.689 -3.399 0.923
587 0 5 -0.128 67.565 1.482 -7.146
588 0 6 0.002 68.466 0.782 -6.315
589 0 5 -0.128 67.949 0.021 -5.245
590 0 5 -0.128 66.565 -0.04 -5.015
591 0 5 0.252 65.668 0.654 -5.845
592 0 5 -0.128 66.18 1.42 -6.914
593 0 4 0.132 67.923 2.074 -7.976
594 0 4 0.132 68.608 -0.514 -4.578
595 0 4 0.132 66.187 -0.623 -4.188
596 0 4 0.132 65.532 1.979 -7.574
597 0 6 0.002 69.952 0.851 -6.561
598 0 5 -0.128 70.759 -0.299 -6.414
599 0 5 -0.128 72.145 -0.233 -6.636
600 0 5 -0.128 72.741 0.982 -7.008
601 0 5 -0.128 71.95 2.132 -7.159
602 0 5 -0.128 70.564 2.068 -6.937
603 0 4 0.132 70.323 -1.246 -6.135
604 0 4 0.132 72.751 -1.118 -6.519
605 0 4 0.132 73.806 1.033 -7.176
606 0 4 0.132 72.408 3.069 -7.443
607 0 4 0.132 69.98 2.968 -7.053
608 0 7 -0.649 64.231 0.537 -5.534
609 0 8 0.701 63.194 0.994 -6.26
610 0 9 -0.549 63.304 1.553 -7.311
611 0 5 0.002 61.874 0.699 -5.575
612 0 5 -0.128 61.802 0.032 -4.332
613 0 5 -0.128 60.558 -0.214 -3.732
614 0 5 0.182 59.367 0.192 -4.354
615 0 5 -0.128 59.432 0.857 -5.597
616 0 5 -0.128 60.678 1.107 -6.199
617 0 4 0.132 62.697 -0.294 -3.823
618 0 4 0.132 60.516 -0.718 -2.777
619 0 4 0.132 58.536 1.182 -6.104
620 0 4 0.132 60.71 1.619 -7.15
621 0 10 -0.369 58.186 -0.101 -3.671
622 0 3 0.092 56.95 0.336 -4.209
623 0 3 0.092 55.879 0 -3.171
624 0 4 0.037 56.742 -0.167 -5.154
625 0 4 0.037 56.962 1.413 -4.381
626 0 4 0.037 56.195 0.462 -2.236
627 0 4 0.037 55.886 -1.076 -3.001
628 0 5 -0.128 68.918 3.185 -3.794
629 0 6 0.002 69.698 2.349 -2.966
630 0 5 -0.128 69.055 1.627 -1.938
631 0 5 -0.128 67.667 1.73 -1.752
632 0 5 0.252 66.891 2.551 -2.585
633 0 5 -0.128 67.529 3.287 -3.607
634 0 4 0.132 69.372 3.754 -4.592
635 0 4 0.132 69.617 0.983 -1.277
636 0 4 0.132 67.189 1.174 -0.96
637 0 4 0.132 66.973 3.941 -4.263
638 0 6 0.002 71.185 2.221 -3.183
639 0 5 -0.128 71.827 0.971 -3.029
640 0 5 -0.128 73.211 0.847 -3.234
641 0 5 -0.128 73.972 1.97 -3.597
642 0 5 -0.128 73.347 3.217 -3.754
643 0 5 -0.128 71.963 3.343 -3.548
644 0 4 0.132 71.264 0.09 -2.759
645 0 4 0.132 73.688 -0.113 -3.115
646 0 4 0.132 75.035 1.874 -3.757
647 0 4 0.132 73.931 4.082 -4.035
648 0 4 0.132 71.508 4.314 -3.673
649 0 7 -0.649 65.437 2.588 -2.34
650 0 8 0.701 64.491 3.026 -3.191
651 0 9 -0.549 64.721 3.424 -4.294
652 0 5 0.002 63.108 2.947 -2.575
653 0 5 -0.128 62.873 2.422 -1.285
654 0 5 -0.128 61.569 2.374 -0.763
655 0 5 0.182 60.476 2.843 -1.512
656 0 5 -0.128 60.713 3.367 -2.805
657 0 5 -0.128 62.015 3.418 -3.327
658 0 4 0.132 63.69 2.051 -0.684
659 0 4 0.132 61.407 1.973 0.228
660 0 4 0.132 59.907 3.736 -3.421
661 0 4 0.132 62.17 3.82 -4.317
662 0 10 -0.369 59.206 2.759 -0.919
663 0 3 0.092 58.102 3.192 -1.698
664 0 3 0.092 56.791 3.013 -0.923
665 0 4 0.037 58.046 2.614 -2.621
666 0 4 0.037 58.217 4.245 -1.959
667 0 4 0.037 56.853 3.538 0.031
668 0 4 0.037 56.661 1.958 -0.687
669 0 5 -0.128 39.477 0.961 4.952
670 0 6 0.002 38.478 1.275 4.005
671 0 5 -0.128 38.846 2 2.851
672 0 5 -0.128 40.176 2.402 2.652
673 0 5 0.252 41.167 2.092 3.599
674 0 5 -0.128 40.808 1.364 4.753
675 0 4 0.132 39.238 0.397 5.842
676 0 4 0.132 38.113 2.265 2.103
677 0 4 0.132 40.44 2.956 1.763
678 0 4 0.132 41.547 1.093 5.493
679 0 6 0.002 37.045 0.848 4.218
680 0 5 -0.128 36.245 0.437 3.127
681 0 5 -0.128 34.911 0.042 3.324
682 0 5 -0.128 34.359 0.053 4.614
683 0 5 -0.128 35.141 0.458 5.708
684 0 5 -0.128 36.475 0.853 5.512
685 0 4 0.132 36.646 0.412 2.125
686 0 4 0.132 34.312 -0.271 2.484
687 0 4 0.132 33.334 -0.253 4.766
688 0 4 0.132 34.716 0.464 6.701
689 0 4 0.132 37.051 1.164 6.369
690 0 7 -0.649 42.542 2.543 3.319
691 0 8 0.701 43.525 2.719 4.221
692 0 9 -0.549 43.383 2.564 5.398
693 0 5 0.002 44.815 3.154 3.551
694 0 5 -0.128 44.94 3.256 2.147
695 0 5 -0.128 46.158 3.645 1.566
696 0 5 0.182 47.272 3.938 2.379
697 0 5 -0.128 47.147 3.852 3.776
698 0 5 -0.128 45.929 3.46 4.358
699 0 4 0.132 44.104 3.034 1.502
700 0 4 0.132 46.228 3.718 0.49
701 0 4 0.132 47.994 4.079 4.406
702 0 4 0.132 45.857 3.392 5.434
703 0 10 -0.369 48.512 4.296 1.846
704 0 3 0.092 48.954 3.459 0.786
705 0 3 0.092 50.461 3.618 0.559
706 0 4 0.037 48.414 3.679 -0.135
707 0 4 0.037 48.776 2.41 1.026
708 0 4 0.037 50.645 4.487 -0.073
709 0 4 0.037 50.772 2.742 -0.011
710 0 5 -0.128 37.617 -2.736 3.34
711 0 6 0.002 37.215 -3.105 4.642
712 0 5 -0.128 38.19 -3.146 5.663
713 0 5 -0.128 39.528 -2.82 5.388
714 0 5 0.252 39.923 -2.447 4.093
715 0 5 -0.128 38.956 -2.41 3.067
716 0 4 0.132 36.903 -2.687 2.532
717 0 4 0.132 37.925 -3.432 6.67
718 0 4 0.132 40.26 -2.855 6.182
719 0 4 0.132 39.222 -2.139 2.055
720 0 6 0.002 35.773 -3.444 4.935
721 0 5 -0.128 35.18 -3.069 6.162
722 0 5 -0.128 33.835 -3.378 6.431
723 0 5 -0.128 33.067 -4.064 5.478
724 0 5 -0.128 33.643 -4.444 4.256
725 0 5 -0.128 34.987 -4.136 3.985
726 0 4 0.132 35.744 -2.533 6.909
727 0 4 0.132 33.394 -3.085 7.371
728 0 4 0.132 32.034 -4.3 5.686
729 0 4 0.132 33.052 -4.973 3.522
730 0 4 0.132 35.405 -4.444 3.039
731 0 7 -0.649 41.343 -2.113 3.875
732 0 8 0.701 41.832 -1.354 2.876
733 0 9 -0.549 41.146 -0.813 2.059
734 0 5 0.002 43.343 -1.256 2.933
735 0 5 -0.128 44.123 -1.99 3.853
736 0 5 -0.128 45.524 -1.861 3.863
737 0 5 0.182 46.17 -0.998 2.961
738 0 5 -0.128 45.388 -0.267 2.038
739 0 5 -0.128 43.991 -0.396 2.027
740 0 4 0.132 43.656 -2.659 4.56
741 0 4 0.132 46.107 -2.429 4.574
742 0 4 0.132 45.842 0.402 1.323
743 0 4 0.132 43.414 0.177 1.315
744 0 10 -0.369 47.568 -0.908 3.032
745 0 3 0.092 48.128 0.33 2.62
746 0 3 0.092 49.627 0.385 2.949
747 0 4 0.037 47.633 1.146 3.148
748 0 4 0.037 47.983 0.48 1.55
749 0 4 0.037 49.813 -0.11 3.902
750 0 4 0.037 49.887 1.432 3.102
751 0 1 0.301 -0.996 14.539 1.774
752 0 2 -0.248 -0.16 15.198 0.514
753 0 1 0.301 -0.082 14.665 -1.044
754 0 2 -0.248 -1.109 12.917 1.527
755 0 3 -0.098 -2.729 15.27 1.862
756 0 3 -0.098 -0.013 14.83 3.345
757 0 1 0.301 -1.65 11.502 2.157
758 0 2 -0.248 -0.84 10.288 1.407
759 0 3 -0.098 -3.497 11.292 1.831
760 0 3 -0.098 -1.214 11.456 3.98
761 0 1 0.301 -0.745 9.46 -0.01
762 0 2 -0.248 -0.348 10.425 -1.277
763 0 3 -0.098 -2.4 8.65 -0.363
764 0 3 -0.098 0.679 8.242 0.179
765 0 1 0.301 -0.672 11.833 -2.05
766 0 2 -0.248 -0.269 13.037 -1.021
767 0 3 -0.098 1.615 15.058 -1.754
768 0 3 -0.098 -1.458 15.434 -2.064
769 0 4 0.037 -3.715 10.227 1.737
770 0 4 0.037 -3.731 11.749 0.87
771 0 4 0.037 -1.508 10.499 4.411
772 0 4 0.037 -1.733 12.255 4.509
773 0 4 0.037 -0.14 11.587 4.11
774 0 4 0.037 -3.246 14.796 2.696
775 0 4 0.037 -2.655 16.326 2.124
776 0 4 0.037 -0.54 14.407 4.2
777 0 4 0.037 0.123 15.9 3.508
778 0 4 0.037 0.965 14.357 3.265
779 0 4 0.037 1.658 14.646 -2.762
780 0 4 0.037 1.706 16.14 -1.856
781 0 4 0.037 -1.223 15.341 -3.125
782 0 4 0.037 -1.562 16.491 -1.819
783 0 4 0.037 -2.405 14.926 -1.885
784 0 4 0.037 0.932 7.844 -0.804
785 0 4 0.037 0.338 7.401 0.783
786 0 4 0.037 -2.334 8.041 -1.264
787 0 4 0.037 -3.165 9.413 -0.51
788 0 4 0.037 -2.692 8.015 0.474
789 0 3 -0.098 -2.503 11.931 -2.444
790 0 3 -0.098 0.458 11.946 -3.555
791 0 4 0.037 0.454 12.973 -3.921
792 0 4 0.037 0.064 11.314 -4.352
793 0 4 0.037 -2.72 12.844 -3
794 0 4 0.037 -3.082 11.934 -1.52
795 0 4 0.037 -2.802 11.073 -3.044
796 0 5 -0.128 13.021 8.258 -2.681
797 0 6 0.002 13.986 8.966 -1.93
798 0 5 -0.128 13.54 9.799 -0.881
799 0 5 -0.128 12.172 9.916 -0.588
800 0 5 0.252 11.216 9.206 -1.332
801 0 5 -0.128 11.651 8.376 -2.387
802 0 4 0.132 13.314 7.607 -3.491
803 0 4 0.132 14.24 10.368 -0.286
804 0 4 0.132 11.851 10.56 0.218
805 0 4 0.132 10.948 7.824 -2.994
806 0 6 0.002 15.461 8.834 -2.238
807 0 5 -0.128 16.424 8.902 -1.204
808 0 5 -0.128 17.794 8.781 -1.488
809 0 5 -0.128 18.224 8.589 -2.81
810 0 5 -0.128 17.282 8.518 -3.847
811 0 5 -0.128 15.91 8.64 -3.564
812 0 4 0.132 16.126 9.042 -0.175
813 0 4 0.132 18.518 8.836 -0.689
814 0 4 0.132 19.277 8.497 -3.029
815 0 4 0.132 17.611 8.371 -4.866
816 0 4 0.132 15.213 8.586 -4.386
817 0 7 -0.649 9.798 9.375 -0.959
818 0 8 0.701 8.778 8.56 -1.288
819 0 9 -0.549 8.91 7.552 -1.918
820 0 5 0.002 7.457 9.076 -0.752
821 0 5 -0.128 7.362 10.241 0.041
822 0 5 -0.128 6.113 10.686 0.504
823 0 5 0.182 4.938 9.985 0.187
824 0 5 -0.128 5.03 8.817 -0.602
825 0 5 -0.128 6.279 8.369 -1.064
826 0 4 0.132 8.245 10.807 0.3
827 0 4 0.132 6.054 11.582 1.106
828 0 4 0.132 4.15 8.249 -0.864
829 0 4 0.132 6.326 7.474 -1.668
830 0 10 -0.369 3.739 10.51 0.685
831 0 3 0.092 2.517 10.094 0.094
832 0 3 0.092 1.928 8.876 0.838
833 0 4 0.037 2.624 9.909 -0.976
834 0 4 0.037 1.83 10.937 0.176
835 0 4 0.037 1.701 9.165 1.865
836 0 4 0.037 2.689 8.101 0.923
837 0 5 -0.128 13.565 12.982 -7.146
838 0 6 0.002 14.466 12.282 -6.315
839 0 5 -0.128 13.949 11.521 -5.245
840 0 5 -0.128 12.565 11.46 -5.015
841 0 5 0.252 11.668 12.154 -5.845
842 0 5 -0.128 12.18 12.92 -6.914
843 0 4 0.132 13.923 13.574 -7.976