LAMMPS Description

250 atoms
265 bonds
450 angles
655 dihedrals
185 impropers

10 atom types
14 bond types
22 angle types
12 dihedral types
7 improper types

0.0 27.0 xlo xhi
0.0 11.5 ylo yhi
0.0 16.5 zlo zhi

Masses

1 28.0855
2 15.9994
3 12.011
4 1.008
5 12.011
6 12.011
7 15.9994
8 12.011
9 15.9994
10 15.9994

Nonbond Coeffs

1  0.3099999744000021       4.454493652010854    
2  0.1590998992200333       3.260689407277043    
3  9.0300015734114558E-02   3.207235441894934    
4  4.1999941717803052E-02   2.369790780081914    
5  4.9999893826371399E-02   3.634867889734813    
6  4.9999893826371399E-02   3.634867889734813    
7  0.1591001638567846       2.850875897664472    
8  0.1409994499536003       3.331963586490748    
9  0.1591001896348901       2.708331722656194    
0  0.1591001638567846       2.850875897664472    

Bond Coeffs

1 490 1.63
2 232 1.878
3 340 1.09
4 268 1.529
5 450 1.37
6 440 1.383
7 370 1.08
8 460 1.485
9 365 1.4
10 350 1.319
11 640 1.193
12 386 1.46
13 365 1.38
14 390 1.407

Angle Coeffs

1 127 109.47
2 31 120
2 33 107.8
4 37.5 110.7
5 45 109.47
6 50 109.47
7 55 120
8 55.5 109.47
9 57 110
10 58.35 112.7
11 60 110
12 61 108
13 7.5 149
14 70 117
15 70 118
16 70 120
17 70 121
18 79 113
19 80 116
20 81 122.5
21 85 105.47
22 86 121.1

Dihedral Coeffs

1 0.09 1 3
2 0.15 1 3
3 0.27 -1 3
4 0.27 1 3
5 0.5 -1 2
6 0.55 1 1
7 0.8 -1 2
8 1.4 -1 2
9 2.5 -1 2
10 2.8 -1 2
11 3 -1 2
12 3.1 -1 2

Improper Coeffs

1 100 0
2 130 0
3 140 0
4 15 0
5 150 0
6 75 0
7 90 0

Atoms

1 0 1 0.301 -0.996 3.039 1.774
2 0 2 -0.248 -0.16 3.698 0.514
3 0 1 0.301 -0.082 3.165 -1.044
4 0 2 -0.248 -1.109 1.417 1.527
5 0 3 -0.098 -2.729 3.77 1.862
6 0 3 -0.098 -0.013 3.33 3.345
7 0 1 0.301 -1.65 0.002 2.157
8 0 2 -0.248 -0.84 -1.212 1.407
9 0 3 -0.098 -3.497 -0.208 1.831
10 0 3 -0.098 -1.214 -0.044 3.98
11 0 1 0.301 -0.745 -2.04 -0.01
12 0 2 -0.248 -0.348 -1.075 -1.277
13 0 3 -0.098 -2.4 -2.85 -0.363
14 0 3 -0.098 0.679 -3.258 0.179
15 0 1 0.301 -0.672 0.333 -2.05
16 0 2 -0.248 -0.269 1.537 -1.021
17 0 3 -0.098 1.615 3.558 -1.754
18 0 3 -0.098 -1.458 3.934 -2.064
19 0 4 0.037 -3.715 -1.273 1.737
20 0 4 0.037 -3.731 0.249 0.87
21 0 4 0.037 -1.508 -1.001 4.411
22 0 4 0.037 -1.733 0.755 4.509
23 0 4 0.037 -0.14 0.087 4.11
24 0 4 0.037 -3.246 3.296 2.696
25 0 4 0.037 -2.655 4.826 2.124
26 0 4 0.037 -0.54 2.907 4.2
27 0 4 0.037 0.123 4.4 3.508
28 0 4 0.037 0.965 2.857 3.265
29 0 4 0.037 1.658 3.146 -2.762
30 0 4 0.037 1.706 4.64 -1.856
31 0 4 0.037 -1.223 3.841 -3.125
32 0 4 0.037 -1.562 4.991 -1.819
33 0 4 0.037 -2.405 3.426 -1.885
34 0 4 0.037 0.932 -3.656 -0.804
35 0 4 0.037 0.338 -4.099 0.783
36 0 4 0.037 -2.334 -3.459 -1.264
37 0 4 0.037 -3.165 -2.087 -0.51
38 0 4 0.037 -2.692 -3.485 0.474
39 0 3 -0.098 -2.503 0.431 -2.444
40 0 3 -0.098 0.458 0.446 -3.555
41 0 4 0.037 0.454 1.473 -3.921
42 0 4 0.037 0.064 -0.186 -4.352
43 0 4 0.037 -2.72 1.344 -3
44 0 4 0.037 -3.082 0.434 -1.52
45 0 4 0.037 -2.802 -0.427 -3.044
46 0 5 -0.128 13.021 -3.242 -2.681
47 0 6 0.002 13.986 -2.534 -1.93
48 0 5 -0.128 13.54 -1.701 -0.881
49 0 5 -0.128 12.172 -1.584 -0.588
50 0 5 0.252 11.216 -2.294 -1.332
51 0 5 -0.128 11.651 -3.124 -2.387
52 0 4 0.132 13.314 -3.893 -3.491
53 0 4 0.132 14.24 -1.132 -0.286
54 0 4 0.132 11.851 -0.94 0.218
55 0 4 0.132 10.948 -3.676 -2.994
56 0 6 0.002 15.461 -2.666 -2.238
57 0 5 -0.128 16.424 -2.598 -1.204
58 0 5 -0.128 17.794 -2.719 -1.488
59 0 5 -0.128 18.224 -2.911 -2.81
60 0 5 -0.128 17.282 -2.982 -3.847
61 0 5 -0.128 15.91 -2.86 -3.564
62 0 4 0.132 16.126 -2.458 -0.175
63 0 4 0.132 18.518 -2.664 -0.689
64 0 4 0.132 19.277 -3.003 -3.029
65 0 4 0.132 17.611 -3.129 -4.866
66 0 4 0.132 15.213 -2.914 -4.386
67 0 7 -0.649 9.798 -2.125 -0.959
68 0 8 0.701 8.778 -2.94 -1.288
69 0 9 -0.549 8.91 -3.948 -1.918
70 0 5 0.002 7.457 -2.424 -0.752
71 0 5 -0.128 7.362 -1.259 0.041
72 0 5 -0.128 6.113 -0.814 0.504
73 0 5 0.182 4.938 -1.515 0.187
74 0 5 -0.128 5.03 -2.683 -0.602
75 0 5 -0.128 6.279 -3.131 -1.064
76 0 4 0.132 8.245 -0.693 0.3
77 0 4 0.132 6.054 0.082 1.106
78 0 4 0.132 4.15 -3.251 -0.864
79 0 4 0.132 6.326 -4.026 -1.668
80 0 10 -0.369 3.739 -0.99 0.685
81 0 3 0.092 2.517 -1.406 0.094
82 0 3 0.092 1.928 -2.624 0.838
83 0 4 0.037 2.624 -1.591 -0.976
84 0 4 0.037 1.83 -0.563 0.176
85 0 4 0.037 1.701 -2.335 1.865
86 0 4 0.037 2.689 -3.399 0.923
87 0 5 -0.128 13.565 1.482 -7.146
88 0 6 0.002 14.466 0.782 -6.315
89 0 5 -0.128 13.949 0.021 -5.245
90 0 5 -0.128 12.565 -0.04 -5.015
91 0 5 0.252 11.668 0.654 -5.845
92 0 5 -0.128 12.18 1.42 -6.914
93 0 4 0.132 13.923 2.074 -7.976
94 0 4 0.132 14.608 -0.514 -4.578
95 0 4 0.132 12.187 -0.623 -4.188
96 0 4 0.132 11.532 1.979 -7.574
97 0 6 0.002 15.952 0.851 -6.561
98 0 5 -0.128 16.759 -0.299 -6.414
99 0 5 -0.128 18.145 -0.233 -6.636
100 0 5 -0.128 18.741 0.982 -7.008
101 0 5 -0.128 17.95 2.132 -7.159
102 0 5 -0.128 16.564 2.068 -6.937
103 0 4 0.132 16.323 -1.246 -6.135
104 0 4 0.132 18.751 -1.118 -6.519
105 0 4 0.132 19.806 1.033 -7.176
106 0 4 0.132 18.408 3.069 -7.443
107 0 4 0.132 15.98 2.968 -7.053
108 0 7 -0.649 10.231 0.537 -5.534
109 0 8 0.701 9.194 0.994 -6.26
110 0 9 -0.549 9.304 1.553 -7.311
111 0 5 0.002 7.874 0.699 -5.575
112 0 5 -0.128 7.802 0.032 -4.332
113 0 5 -0.128 6.558 -0.214 -3.732
114 0 5 0.182 5.367 0.192 -4.354
115 0 5 -0.128 5.432 0.857 -5.597
116 0 5 -0.128 6.678 1.107 -6.199
117 0 4 0.132 8.697 -0.294 -3.823
118 0 4 0.132 6.516 -0.718 -2.777
119 0 4 0.132 4.536 1.182 -6.104
120 0 4 0.132 6.71 1.619 -7.15
121 0 10 -0.369 4.186 -0.101 -3.671
122 0 3 0.092 2.95 0.336 -4.209
123 0 3 0.092 1.879 0 -3.171
124 0 4 0.037 2.742 -0.167 -5.154
125 0 4 0.037 2.962 1.413 -4.381
126 0 4 0.037 2.195 0.462 -2.236
127 0 4 0.037 1.886 -1.076 -3.001
128 0 5 -0.128 14.918 3.185 -3.794
129 0 6 0.002 15.698 2.349 -2.966
130 0 5 -0.128 15.055 1.627 -1.938
131 0 5 -0.128 13.667 1.73 -1.752
132 0 5 0.252 12.891 2.551 -2.585
133 0 5 -0.128 13.529 3.287 -3.607
134 0 4 0.132 15.372 3.754 -4.592
135 0 4 0.132 15.617 0.983 -1.277
136 0 4 0.132 13.189 1.174 -0.96
137 0 4 0.132 12.973 3.941 -4.263
138 0 6 0.002 17.185 2.221 -3.183
139 0 5 -0.128 17.827 0.971 -3.029
140 0 5 -0.128 19.211 0.847 -3.234
141 0 5 -0.128 19.972 1.97 -3.597
142 0 5 -0.128 19.347 3.217 -3.754
143 0 5 -0.128 17.963 3.343 -3.548
144 0 4 0.132 17.264 0.09 -2.759
145 0 4 0.132 19.688 -0.113 -3.115
146 0 4 0.132 21.035 1.874 -3.757
147 0 4 0.132 19.931 4.082 -4.035
148 0 4 0.132 17.508 4.314 -3.673
149 0 7 -0.649 11.437 2.588 -2.34
150 0 8 0.701 10.491 3.026 -3.191
151 0 9 -0.549 10.721 3.424 -4.294
152 0 5 0.002 9.108 2.947 -2.575
153 0 5 -0.128 8.873 2.422 -1.285
154 0 5 -0.128 7.569 2.374 -0.763
155 0 5 0.182 6.476 2.843 -1.512
156 0 5 -0.128 6.713 3.367 -2.805
157 0 5 -0.128 8.015 3.418 -3.327
158 0 4 0.132 9.69 2.051 -0.684
159 0 4 0.132 7.407 1.973 0.228
160 0 4 0.132 5.907 3.736 -3.421
161 0 4 0.132 8.17 3.82 -4.317
162 0 10 -0.369 5.206 2.759 -0.919
163 0 3 0.092 4.102 3.192 -1.698
164 0 3 0.092 2.791 3.013 -0.923
165 0 4 0.037 4.046 2.614 -2.621
166 0 4 0.037 4.217 4.245 -1.959
167 0 4 0.037 2.853 3.538 0.031
168 0 4 0.037 2.661 1.958 -0.687
169 0 5 -0.128 -14.523 0.961 4.952
170 0 6 0.002 -15.522 1.275 4.005
171 0 5 -0.128 -15.154 2 2.851
172 0 5 -0.128 -13.824 2.402 2.652
173 0 5 0.252 -12.833 2.092 3.599
174 0 5 -0.128 -13.192 1.364 4.753
175 0 4 0.132 -14.762 0.397 5.842
176 0 4 0.132 -15.887 2.265 2.103
177 0 4 0.132 -13.56 2.956 1.763
178 0 4 0.132 -12.453 1.093 5.493
179 0 6 0.002 -16.955 0.848 4.218
180 0 5 -0.128 -17.755 0.437 3.127
181 0 5 -0.128 -19.089 0.042 3.324
182 0 5 -0.128 -19.641 0.053 4.614
183 0 5 -0.128 -18.859 0.458 5.708
184 0 5 -0.128 -17.525 0.853 5.512
185 0 4 0.132 -17.354 0.412 2.125
186 0 4 0.132 -19.688 -0.271 2.484
187 0 4 0.132 -20.666 -0.253 4.766
188 0 4 0.132 -19.284 0.464 6.701
189 0 4 0.132 -16.949 1.164 6.369
190 0 7 -0.649 -11.458 2.543 3.319
191 0 8 0.701 -10.475 2.719 4.221
192 0 9 -0.549 -10.617 2.564 5.398
193 0 5 0.002 -9.185 3.154 3.551
194 0 5 -0.128 -9.06 3.256 2.147
195 0 5 -0.128 -7.842 3.645 1.566
196 0 5 0.182 -6.728 3.938 2.379
197 0 5 -0.128 -6.853 3.852 3.776
198 0 5 -0.128 -8.071 3.46 4.358
199 0 4 0.132 -9.896 3.034 1.502
200 0 4 0.132 -7.772 3.718 0.49
201 0 4 0.132 -6.006 4.079 4.406
202 0 4 0.132 -8.143 3.392 5.434
203 0 10 -0.369 -5.488 4.296 1.846
204 0 3 0.092 -5.046 3.459 0.786
205 0 3 0.092 -3.539 3.618 0.559
206 0 4 0.037 -5.586 3.679 -0.135
207 0 4 0.037 -5.224 2.41 1.026
208 0 4 0.037 -3.355 4.487 -0.073
209 0 4 0.037 -3.228 2.742 -0.011
210 0 5 -0.128 -16.383 -2.736 3.34
211 0 6 0.002 -16.785 -3.105 4.642
212 0 5 -0.128 -15.81 -3.146 5.663
213 0 5 -0.128 -14.472 -2.82 5.388
214 0 5 0.252 -14.077 -2.447 4.093
215 0 5 -0.128 -15.044 -2.41 3.067
216 0 4 0.132 -17.097 -2.687 2.532
217 0 4 0.132 -16.075 -3.432 6.67
218 0 4 0.132 -13.74 -2.855 6.182
219 0 4 0.132 -14.778 -2.139 2.055
220 0 6 0.002 -18.227 -3.444 4.935
221 0 5 -0.128 -18.82 -3.069 6.162
222 0 5 -0.128 -20.165 -3.378 6.431
223 0 5 -0.128 -20.933 -4.064 5.478
224 0 5 -0.128 -20.357 -4.444 4.256
225 0 5 -0.128 -19.013 -4.136 3.985
226 0 4 0.132 -18.256 -2.533 6.909
227 0 4 0.132 -20.606 -3.085 7.371
228 0 4 0.132 -21.966 -4.3 5.686
229 0 4 0.132 -20.948 -4.973 3.522
230 0 4 0.132 -18.595 -4.444 3.039
231 0 7 -0.649 -12.657 -2.113 3.875
232 0 8 0.701 -12.168 -1.354 2.876
233 0 9 -0.549 -12.854 -0.813 2.059
234 0 5 0.002 -10.657 -1.256 2.933
235 0 5 -0.128 -9.877 -1.99 3.853
236 0 5 -0.128 -8.476 -1.861 3.863
237 0 5 0.182 -7.83 -0.998 2.961
238 0 5 -0.128 -8.612 -0.267 2.038
239 0 5 -0.128 -10.009 -0.396 2.027
240 0 4 0.132 -10.344 -2.659 4.56
241 0 4 0.132 -7.893 -2.429 4.574
242 0 4 0.132 -8.158 0.402 1.323
243 0 4 0.132 -10.586 0.177 1.315
244 0 10 -0.369 -6.432 -0.908 3.032
245 0 3 0.092 -5.872 0.33 2.62
246 0 3 0.092 -4.373 0.385 2.949
247 0 4 0.037 -6.367 1.146 3.148
248 0 4 0.037 -6.017 0.48 1.55
249 0 4 0.037 -4.187 -0.11 3.902
250 0 4 0.037 -4.113 1.432 3.102

Bonds

1 1 1 2
2 1 1 4
3 2 1 5
4 2 1 6
5 1 2 3
6 1 3 16
7 2 3 17
8 2 3 18
9 1 4 7
10 3 5 24
11 3 5 25
12 4 5 205
13 3 6 26
14 3 6 27
15 3 6 28
16 1 7 8
17 2 7 9
18 2 7 10
19 1 8 11
20 3 9 19
21 3 9 20
22 4 9 246
23 3 10 21
24 3 10 22
25 3 10 23
26 1 11 12
27 2 11 13
28 2 11 14
29 1 12 15
30 3 13 36
31 3 13 37
32 3 13 38
33 3 14 34
34 3 14 35
35 4 14 82
36 1 15 16
37 2 15 39
38 2 15 40
39 3 17 29
40 3 17 30
41 4 17 164
42 3 18 31
43 3 18 32
44 3 18 33
45 3 39 43
46 3 39 44
47 3 39 45
48 3 40 41
49 3 40 42
50 4 40 123
51 5 46 47
52 6 46 51
53 7 46 52
54 5 47 48
55 8 47 56
56 6 48 49
57 7 48 53
58 6 49 50
59 7 49 54
60 6 50 51
61 9 50 67
62 7 51 55
63 5 56 57
64 5 56 61
65 6 57 58
66 7 57 62
67 6 58 59
68 7 58 63
69 6 59 60
70 7 59 64
71 6 60 61
72 7 60 65
73 7 61 66
74 10 67 68
75 11 68 69
76 12 68 70
77 6 70 71
78 6 70 75
79 6 71 72
80 7 71 76
81 6 72 73
82 7 72 77
83 6 73 74
84 13 73 80
85 6 74 75
86 7 74 78
87 7 75 79
88 14 80 81
89 4 81 82
90 3 81 83
91 3 81 84
92 3 82 85
93 3 82 86
94 5 87 88
95 6 87 92
96 7 87 93
97 5 88 89
98 8 88 97
99 6 89 90
100 7 89 94
101 6 90 91
102 7 90 95
103 6 91 92
104 9 91 108
105 7 92 96
106 5 97 98
107 5 97 102
108 6 98 99
109 7 98 103
110 6 99 100
111 7 99 104
112 6 100 101
113 7 100 105
114 6 101 102
115 7 101 106
116 7 102 107
117 10 108 109
118 11 109 110
119 12 109 111
120 6 111 112
121 6 111 116
122 6 112 113
123 7 112 117
124 6 113 114
125 7 113 118
126 6 114 115
127 13 114 121
128 6 115 116
129 7 115 119
130 7 116 120
131 14 121 122
132 4 122 123
133 3 122 124
134 3 122 125
135 3 123 126
136 3 123 127
137 5 128 129
138 6 128 133
139 7 128 134
140 5 129 130
141 8 129 138
142 6 130 131
143 7 130 135
144 6 131 132
145 7 131 136
146 6 132 133
147 9 132 149
148 7 133 137
149 5 138 139
150 5 138 143
151 6 139 140
152 7 139 144
153 6 140 141
154 7 140 145
155 6 141 142
156 7 141 146
157 6 142 143
158 7 142 147
159 7 143 148
160 10 149 150
161 11 150 151
162 12 150 152
163 6 152 153
164 6 152 157
165 6 153 154
166 7 153 158
167 6 154 155
168 7 154 159
169 6 155 156
170 13 155 162
171 6 156 157
172 7 156 160
173 7 157 161
174 14 162 163
175 4 163 164
176 3 163 165
177 3 163 166
178 3 164 167
179 3 164 168
180 5 169 170
181 6 169 174
182 7 169 175
183 5 170 171
184 8 170 179
185 6 171 172
186 7 171 176
187 6 172 173
188 7 172 177
189 6 173 174
190 9 173 190
191 7 174 178
192 5 179 180
193 5 179 184
194 6 180 181
195 7 180 185
196 6 181 182
197 7 181 186
198 6 182 183
199 7 182 187
200 6 183 184
201 7 183 188
202 7 184 189
203 10 190 191
204 11 191 192
205 12 191 193
206 6 193 194
207 6 193 198
208 6 194 195
209 7 194 199
210 6 195 196
211 7 195 200
212 6 196 197
213 13 196 203
214 6 197 198
215 7 197 201
216 7 198 202
217 14 203 204
218 4 204 205
219 3 204 206
220 3 204 207
221 3 205 208
222 3 205 209
223 5 210 211
224 6 210 215
225 7 210 216
226 5 211 212
227 8 211 220
228 6 212 213
229 7 212 217
230 6 213 214
231 7 213 218
232 6 214 215
233 9 214 231
234 7 215 219
235 5 220 221
236 5 220 225
237 6 221 222
238 7 221 226
239 6 222 223
240 7 222 227
241 6 223 224
242 7 223 228
243 6 224 225
244 7 224 229
245 7 225 230
246 10 231 232
247 11 232 233
248 12 232 234
249 6 234 235
250 6 234 239
251 6 235 236
252 7 235 240
253 6 236 237
254 7 236 241
255 6 237 238
256 13 237 244
257 6 238 239
258 7 238 242
259 7 239 243
260 14 244 245
261 4 245 246
262 3 245 247
263 3 245 248
264 3 246 249
265 3 246 250
 
Angles
 
1 1 2 1 4
2 21 2 1 5
3 21 2 1 6
4 21 4 1 5
5 21 4 1 6
6 18 5 1 6
7 13 1 2 3
8 1 2 3 16
9 21 2 3 17
10 21 2 3 18
11 21 16 3 17
12 21 16 3 18
13 18 17 3 18
14 13 1 4 7
15 6 1 5 24
16 6 1 5 25
17 5 1 5 205
18 3 24 5 25
19 4 24 5 205
20 4 25 5 205
21 6 1 6 26
22 6 1 6 27
23 6 1 6 28
24 3 26 6 27
25 3 26 6 28
26 3 27 6 28
27 1 4 7 8
28 21 4 7 9
29 21 4 7 10
30 21 8 7 9
31 21 8 7 10
32 18 9 7 10
33 13 7 8 11
34 6 7 9 19
35 6 7 9 20
36 5 7 9 246
37 3 19 9 20
38 4 19 9 246
39 4 20 9 246
40 6 7 10 21
41 6 7 10 22
42 6 7 10 23
43 3 21 10 22
44 3 21 10 23
45 3 22 10 23
46 1 8 11 12
47 21 8 11 13
48 21 8 11 14
49 21 12 11 13
50 21 12 11 14
51 18 13 11 14
52 13 11 12 15
53 6 11 13 36
54 6 11 13 37
55 6 11 13 38
56 3 36 13 37
57 3 36 13 38
58 3 37 13 38
59 6 11 14 34
60 6 11 14 35
61 5 11 14 82
62 3 34 14 35
63 4 34 14 82
64 4 35 14 82
65 1 12 15 16
66 21 12 15 39
67 21 12 15 40
68 21 16 15 39
69 21 16 15 40
70 18 39 15 40
71 13 3 16 15
72 6 3 17 29
73 6 3 17 30
74 5 3 17 164
75 3 29 17 30
76 4 29 17 164
77 4 30 17 164
78 6 3 18 31
79 6 3 18 32
80 6 3 18 33
81 3 31 18 32
82 3 31 18 33
83 3 32 18 33
84 6 15 39 43
85 6 15 39 44
86 6 15 39 45
87 3 43 39 44
88 3 43 39 45
89 3 44 39 45
90 6 15 40 41
91 6 15 40 42
92 5 15 40 123
93 3 41 40 42
94 4 41 40 123
95 4 42 40 123
96 16 47 46 51
97 2 47 46 52
98 2 51 46 52
99 15 46 47 48
100 17 46 47 56
101 17 48 47 56
102 16 47 48 49
103 2 47 48 53
104 2 49 48 53
105 16 48 49 50
106 2 48 49 54
107 2 50 49 54
108 16 49 50 51
109 19 49 50 67
110 19 51 50 67
111 16 46 51 50
112 2 46 51 55
113 2 50 51 55
114 17 47 56 57
115 17 47 56 61
116 15 57 56 61
117 16 56 57 58
118 2 56 57 62
119 2 58 57 62
120 16 57 58 59
121 2 57 58 63
122 2 59 58 63
123 16 58 59 60
124 2 58 59 64
125 2 60 59 64
126 16 59 60 61
127 2 59 60 65
128 2 61 60 65
129 16 56 61 60
130 2 56 61 66
131 2 60 61 66
132 14 50 67 68
133 20 67 68 69
134 11 67 68 70
135 22 69 68 70
136 16 68 70 71
137 16 68 70 75
138 16 71 70 75
139 16 70 71 72
140 2 70 71 76
141 2 72 71 76
142 16 71 72 73
143 2 71 72 77
144 2 73 72 77
145 16 72 73 74
146 7 72 73 80
147 7 74 73 80
148 16 73 74 75
149 2 73 74 78
150 2 75 74 78
151 16 70 75 74
152 2 70 75 79
153 2 74 75 79
154 12 73 80 81
155 9 80 81 82
156 8 80 81 83
157 8 80 81 84
158 4 82 81 83
159 4 82 81 84
160 3 83 81 84
161 10 14 82 81
162 4 14 82 85
163 4 14 82 86
164 4 81 82 85
165 4 81 82 86
166 3 85 82 86
167 16 88 87 92
168 2 88 87 93
169 2 92 87 93
170 15 87 88 89
171 17 87 88 97
172 17 89 88 97
173 16 88 89 90
174 2 88 89 94
175 2 90 89 94
176 16 89 90 91
177 2 89 90 95
178 2 91 90 95
179 16 90 91 92
180 19 90 91 108
181 19 92 91 108
182 16 87 92 91
183 2 87 92 96
184 2 91 92 96
185 17 88 97 98
186 17 88 97 102
187 15 98 97 102
188 16 97 98 99
189 2 97 98 103
190 2 99 98 103
191 16 98 99 100
192 2 98 99 104
193 2 100 99 104
194 16 99 100 101
195 2 99 100 105
196 2 101 100 105
197 16 100 101 102
198 2 100 101 106
199 2 102 101 106
200 16 97 102 101
201 2 97 102 107
202 2 101 102 107
203 14 91 108 109
204 20 108 109 110
205 11 108 109 111
206 22 110 109 111
207 16 109 111 112
208 16 109 111 116
209 16 112 111 116
210 16 111 112 113
211 2 111 112 117
212 2 113 112 117
213 16 112 113 114
214 2 112 113 118
215 2 114 113 118
216 16 113 114 115
217 7 113 114 121
218 7 115 114 121
219 16 114 115 116
220 2 114 115 119
221 2 116 115 119
222 16 111 116 115
223 2 111 116 120
224 2 115 116 120
225 12 114 121 122
226 9 121 122 123
227 8 121 122 124
228 8 121 122 125
229 4 123 122 124
230 4 123 122 125
231 3 124 122 125
232 10 40 123 122
233 4 40 123 126
234 4 40 123 127
235 4 122 123 126
236 4 122 123 127
237 3 126 123 127
238 16 129 128 133
239 2 129 128 134
240 2 133 128 134
241 15 128 129 130
242 17 128 129 138
243 17 130 129 138
244 16 129 130 131
245 2 129 130 135
246 2 131 130 135
247 16 130 131 132
248 2 130 131 136
249 2 132 131 136
250 16 131 132 133
251 19 131 132 149
252 19 133 132 149
253 16 128 133 132
254 2 128 133 137
255 2 132 133 137
256 17 129 138 139
257 17 129 138 143
258 15 139 138 143
259 16 138 139 140
260 2 138 139 144
261 2 140 139 144
262 16 139 140 141
263 2 139 140 145
264 2 141 140 145
265 16 140 141 142
266 2 140 141 146
267 2 142 141 146
268 16 141 142 143
269 2 141 142 147
270 2 143 142 147
271 16 138 143 142
272 2 138 143 148
273 2 142 143 148
274 14 132 149 150
275 20 149 150 151
276 11 149 150 152
277 22 151 150 152
278 16 150 152 153
279 16 150 152 157
280 16 153 152 157
281 16 152 153 154
282 2 152 153 158
283 2 154 153 158
284 16 153 154 155
285 2 153 154 159
286 2 155 154 159
287 16 154 155 156
288 7 154 155 162
289 7 156 155 162
290 16 155 156 157
291 2 155 156 160
292 2 157 156 160
293 16 152 157 156
294 2 152 157 161
295 2 156 157 161
296 12 155 162 163
297 9 162 163 164
298 8 162 163 165
299 8 162 163 166
300 4 164 163 165
301 4 164 163 166
302 3 165 163 166
303 10 17 164 163
304 4 17 164 167
305 4 17 164 168
306 4 163 164 167
307 4 163 164 168
308 3 167 164 168
309 16 170 169 174
310 2 170 169 175
311 2 174 169 175
312 15 169 170 171
313 17 169 170 179
314 17 171 170 179
315 16 170 171 172
316 2 170 171 176
317 2 172 171 176
318 16 171 172 173
319 2 171 172 177
320 2 173 172 177
321 16 172 173 174
322 19 172 173 190
323 19 174 173 190
324 16 169 174 173
325 2 169 174 178
326 2 173 174 178
327 17 170 179 180
328 17 170 179 184
329 15 180 179 184
330 16 179 180 181
331 2 179 180 185
332 2 181 180 185
333 16 180 181 182
334 2 180 181 186
335 2 182 181 186
336 16 181 182 183
337 2 181 182 187
338 2 183 182 187
339 16 182 183 184
340 2 182 183 188
341 2 184 183 188
342 16 179 184 183
343 2 179 184 189
344 2 183 184 189
345 14 173 190 191
346 20 190 191 192
347 11 190 191 193
348 22 192 191 193
349 16 191 193 194
350 16 191 193 198
351 16 194 193 198
352 16 193 194 195
353 2 193 194 199
354 2 195 194 199
355 16 194 195 196
356 2 194 195 200
357 2 196 195 200
358 16 195 196 197
359 7 195 196 203
360 7 197 196 203
361 16 196 197 198
362 2 196 197 201
363 2 198 197 201
364 16 193 198 197
365 2 193 198 202
366 2 197 198 202
367 12 196 203 204
368 9 203 204 205
369 8 203 204 206
370 8 203 204 207
371 4 205 204 206
372 4 205 204 207
373 3 206 204 207
374 10 5 205 204
375 4 5 205 208
376 4 5 205 209
377 4 204 205 208
378 4 204 205 209
379 3 208 205 209
380 16 211 210 215
381 2 211 210 216
382 2 215 210 216
383 15 210 211 212
384 17 210 211 220
385 17 212 211 220
386 16 211 212 213
387 2 211 212 217
388 2 213 212 217
389 16 212 213 214
390 2 212 213 218
391 2 214 213 218
392 16 213 214 215
393 19 213 214 231
394 19 215 214 231
395 16 210 215 214
396 2 210 215 219
397 2 214 215 219
398 17 211 220 221
399 17 211 220 225
400 15 221 220 225
401 16 220 221 222
402 2 220 221 226
403 2 222 221 226
404 16 221 222 223
405 2 221 222 227
406 2 223 222 227
407 16 222 223 224
408 2 222 223 228
409 2 224 223 228
410 16 223 224 225
411 2 223 224 229
412 2 225 224 229
413 16 220 225 224
414 2 220 225 230
415 2 224 225 230
416 14 214 231 232
417 20 231 232 233
418 11 231 232 234
419 22 233 232 234
420 16 232 234 235
421 16 232 234 239
422 16 235 234 239
423 16 234 235 236
424 2 234 235 240
425 2 236 235 240
426 16 235 236 237
427 2 235 236 241
428 2 237 236 241
429 16 236 237 238
430 7 236 237 244
431 7 238 237 244
432 16 237 238 239
433 2 237 238 242
434 2 239 238 242
435 16 234 239 238
436 2 234 239 243
437 2 238 239 243
438 12 237 244 245
439 9 244 245 246
440 8 244 245 247
441 8 244 245 248
442 4 246 245 247
443 4 246 245 248
444 3 247 245 248
445 10 9 246 245
446 4 9 246 249
447 4 9 246 250
448 4 245 246 249
449 4 245 246 250
450 3 249 246 250
 
Dihedrals
 
1 3 4 1 2 3
2 4 5 1 2 3
3 4 6 1 2 3
4 3 2 1 4 7
5 4 5 1 4 7
6 4 6 1 4 7
7 1 2 1 5 24
8 1 2 1 5 25
9 1 2 1 5 205
10 1 4 1 5 24
11 1 4 1 5 25
12 1 4 1 5 205
13 1 6 1 5 24
14 1 6 1 5 25
15 1 6 1 5 205
16 1 2 1 6 26
17 1 2 1 6 27
18 1 2 1 6 28
19 1 4 1 6 26
20 1 4 1 6 27
21 1 4 1 6 28
22 1 5 1 6 26
23 1 5 1 6 27
24 1 5 1 6 28
25 3 1 2 3 16
26 4 1 2 3 17
27 4 1 2 3 18
28 3 2 3 16 15
29 4 17 3 16 15
30 4 18 3 16 15
31 1 2 3 17 29
32 1 2 3 17 30
33 1 2 3 17 164
34 1 16 3 17 29
35 1 16 3 17 30
36 1 16 3 17 164
37 1 18 3 17 29
38 1 18 3 17 30
39 1 18 3 17 164
40 1 2 3 18 31
41 1 2 3 18 32
42 1 2 3 18 33
43 1 16 3 18 31
44 1 16 3 18 32
45 1 16 3 18 33
46 1 17 3 18 31
47 1 17 3 18 32
48 1 17 3 18 33
49 3 1 4 7 8
50 4 1 4 7 9
51 4 1 4 7 10
52 2 1 5 205 204
53 2 1 5 205 208
54 2 1 5 205 209
55 2 24 5 205 204
56 2 24 5 205 208
57 2 24 5 205 209
58 2 25 5 205 204
59 2 25 5 205 208
60 2 25 5 205 209
61 3 4 7 8 11
62 4 9 7 8 11
63 4 10 7 8 11
64 1 4 7 9 19
65 1 4 7 9 20
66 1 4 7 9 246
67 1 8 7 9 19
68 1 8 7 9 20
69 1 8 7 9 246
70 1 10 7 9 19
71 1 10 7 9 20
72 1 10 7 9 246
73 1 4 7 10 21
74 1 4 7 10 22
75 1 4 7 10 23
76 1 8 7 10 21
77 1 8 7 10 22
78 1 8 7 10 23
79 1 9 7 10 21
80 1 9 7 10 22
81 1 9 7 10 23
82 3 7 8 11 12
83 4 7 8 11 13
84 4 7 8 11 14
85 2 7 9 246 245
86 2 7 9 246 249
87 2 7 9 246 250
88 2 19 9 246 245
89 2 19 9 246 249
90 2 19 9 246 250
91 2 20 9 246 245
92 2 20 9 246 249
93 2 20 9 246 250
94 3 8 11 12 15
95 4 13 11 12 15
96 4 14 11 12 15
97 1 8 11 13 36
98 1 8 11 13 37
99 1 8 11 13 38
100 1 12 11 13 36
101 1 12 11 13 37
102 1 12 11 13 38
103 1 14 11 13 36
104 1 14 11 13 37
105 1 14 11 13 38
106 1 8 11 14 34
107 1 8 11 14 35
108 1 8 11 14 82
109 1 12 11 14 34
110 1 12 11 14 35
111 1 12 11 14 82
112 1 13 11 14 34
113 1 13 11 14 35
114 1 13 11 14 82
115 3 11 12 15 16
116 4 11 12 15 39
117 4 11 12 15 40
118 2 11 14 82 81
119 2 11 14 82 85
120 2 11 14 82 86
121 2 34 14 82 81
122 2 34 14 82 85
123 2 34 14 82 86
124 2 35 14 82 81
125 2 35 14 82 85
126 2 35 14 82 86
127 3 12 15 16 3
128 4 39 15 16 3
129 4 40 15 16 3
130 1 12 15 39 43
131 1 12 15 39 44
132 1 12 15 39 45
133 1 16 15 39 43
134 1 16 15 39 44
135 1 16 15 39 45
136 1 40 15 39 43
137 1 40 15 39 44
138 1 40 15 39 45
139 1 12 15 40 41
140 1 12 15 40 42
141 1 12 15 40 123
142 1 16 15 40 41
143 1 16 15 40 42
144 1 16 15 40 123
145 1 39 15 40 41
146 1 39 15 40 42
147 1 39 15 40 123
148 2 3 17 164 163
149 2 3 17 164 167
150 2 3 17 164 168
151 2 29 17 164 163
152 2 29 17 164 167
153 2 29 17 164 168
154 2 30 17 164 163
155 2 30 17 164 167
156 2 30 17 164 168
157 2 15 40 123 122
158 2 15 40 123 126
159 2 15 40 123 127
160 2 41 40 123 122
161 2 41 40 123 126
162 2 41 40 123 127
163 2 42 40 123 122
164 2 42 40 123 126
165 2 42 40 123 127
166 12 51 46 47 48
167 12 51 46 47 56
168 12 52 46 47 48
169 12 52 46 47 56
170 12 47 46 51 50
171 12 47 46 51 55
172 11 52 46 51 50
173 9 52 46 51 55
174 12 46 47 48 49
175 12 46 47 48 53
176 12 56 47 48 49
177 12 56 47 48 53
178 7 46 47 56 57
179 7 46 47 56 61
180 7 48 47 56 57
181 7 48 47 56 61
182 12 47 48 49 50
183 12 47 48 49 54
184 11 53 48 49 50
185 9 53 48 49 54
186 10 48 49 50 51
187 12 48 49 50 67
188 11 54 49 50 51
189 12 54 49 50 67
190 10 49 50 51 46
191 11 49 50 51 55
192 12 67 50 51 46
193 12 67 50 51 55
194 5 49 50 67 68
195 5 51 50 67 68
196 12 47 56 57 58
197 12 47 56 57 62
198 12 61 56 57 58
199 12 61 56 57 62
200 12 47 56 61 60
201 12 47 56 61 66
202 12 57 56 61 60
203 12 57 56 61 66
204 12 56 57 58 59
205 12 56 57 58 63
206 11 62 57 58 59
207 9 62 57 58 63
208 10 57 58 59 60
209 11 57 58 59 64
210 11 63 58 59 60
211 9 63 58 59 64
212 10 58 59 60 61
213 11 58 59 60 65
214 11 64 59 60 61
215 9 64 59 60 65
216 12 59 60 61 56
217 11 59 60 61 66
218 12 65 60 61 56
219 9 65 60 61 66
220 9 50 67 68 69
221 9 50 67 68 70
222 5 67 68 70 71
223 5 67 68 70 75
224 5 69 68 70 71
225 5 69 68 70 75
226 12 68 70 71 72
227 12 68 70 71 76
228 10 75 70 71 72
229 11 75 70 71 76
230 12 68 70 75 74
231 12 68 70 75 79
232 10 71 70 75 74
233 11 71 70 75 79
234 10 70 71 72 73
235 11 70 71 72 77
236 11 76 71 72 73
237 9 76 71 72 77
238 10 71 72 73 74
239 12 71 72 73 80
240 11 77 72 73 74
241 12 77 72 73 80
242 10 72 73 74 75
243 11 72 73 74 78
244 12 80 73 74 75
245 12 80 73 74 78
246 8 72 73 80 81
247 8 74 73 80 81
248 10 73 74 75 70
249 11 73 74 75 79
250 11 78 74 75 70
251 9 78 74 75 79
252 4 73 80 81 82
253 4 73 80 81 83
254 4 73 80 81 84
255 6 80 81 82 14
256 2 80 81 82 85
257 2 80 81 82 86
258 2 83 81 82 14
259 2 83 81 82 85
260 2 83 81 82 86
261 2 84 81 82 14
262 2 84 81 82 85
263 2 84 81 82 86
264 12 92 87 88 89
265 12 92 87 88 97
266 12 93 87 88 89
267 12 93 87 88 97
268 12 88 87 92 91
269 12 88 87 92 96
270 11 93 87 92 91
271 9 93 87 92 96
272 12 87 88 89 90
273 12 87 88 89 94
274 12 97 88 89 90
275 12 97 88 89 94
276 7 87 88 97 98
277 7 87 88 97 102
278 7 89 88 97 98
279 7 89 88 97 102
280 12 88 89 90 91
281 12 88 89 90 95
282 11 94 89 90 91
283 9 94 89 90 95
284 10 89 90 91 92
285 12 89 90 91 108
286 11 95 90 91 92
287 12 95 90 91 108
288 10 90 91 92 87
289 11 90 91 92 96
290 12 108 91 92 87
291 12 108 91 92 96
292 5 90 91 108 109
293 5 92 91 108 109
294 12 88 97 98 99
295 12 88 97 98 103
296 12 102 97 98 99
297 12 102 97 98 103
298 12 88 97 102 101
299 12 88 97 102 107
300 12 98 97 102 101
301 12 98 97 102 107
302 12 97 98 99 100
303 12 97 98 99 104
304 11 103 98 99 100
305 9 103 98 99 104
306 10 98 99 100 101
307 11 98 99 100 105
308 11 104 99 100 101
309 9 104 99 100 105
310 10 99 100 101 102
311 11 99 100 101 106
312 11 105 100 101 102
313 9 105 100 101 106
314 12 100 101 102 97
315 11 100 101 102 107
316 12 106 101 102 97
317 9 106 101 102 107
318 9 91 108 109 110
319 9 91 108 109 111
320 5 108 109 111 112
321 5 108 109 111 116
322 5 110 109 111 112
323 5 110 109 111 116
324 12 109 111 112 113
325 12 109 111 112 117
326 10 116 111 112 113
327 11 116 111 112 117
328 12 109 111 116 115
329 12 109 111 116 120
330 10 112 111 116 115
331 11 112 111 116 120
332 10 111 112 113 114
333 11 111 112 113 118
334 11 117 112 113 114
335 9 117 112 113 118
336 10 112 113 114 115
337 12 112 113 114 121
338 11 118 113 114 115
339 12 118 113 114 121
340 10 113 114 115 116
341 11 113 114 115 119
342 12 121 114 115 116
343 12 121 114 115 119
344 8 113 114 121 122
345 8 115 114 121 122
346 10 114 115 116 111
347 11 114 115 116 120
348 11 119 115 116 111
349 9 119 115 116 120
350 4 114 121 122 123
351 4 114 121 122 124
352 4 114 121 122 125
353 6 121 122 123 40
354 2 121 122 123 126
355 2 121 122 123 127
356 2 124 122 123 40
357 2 124 122 123 126
358 2 124 122 123 127
359 2 125 122 123 40
360 2 125 122 123 126
361 2 125 122 123 127
362 12 133 128 129 130
363 12 133 128 129 138
364 12 134 128 129 130
365 12 134 128 129 138
366 12 129 128 133 132
367 12 129 128 133 137
368 11 134 128 133 132
369 9 134 128 133 137
370 12 128 129 130 131
371 12 128 129 130 135
372 12 138 129 130 131
373 12 138 129 130 135
374 7 128 129 138 139
375 7 128 129 138 143
376 7 130 129 138 139
377 7 130 129 138 143
378 12 129 130 131 132
379 12 129 130 131 136
380 11 135 130 131 132
381 9 135 130 131 136
382 10 130 131 132 133
383 12 130 131 132 149
384 11 136 131 132 133
385 12 136 131 132 149
386 10 131 132 133 128
387 11 131 132 133 137
388 12 149 132 133 128
389 12 149 132 133 137
390 5 131 132 149 150
391 5 133 132 149 150
392 12 129 138 139 140
393 12 129 138 139 144
394 12 143 138 139 140
395 12 143 138 139 144
396 12 129 138 143 142
397 12 129 138 143 148
398 12 139 138 143 142
399 12 139 138 143 148
400 12 138 139 140 141
401 12 138 139 140 145
402 11 144 139 140 141
403 9 144 139 140 145
404 10 139 140 141 142
405 11 139 140 141 146
406 11 145 140 141 142
407 9 145 140 141 146
408 10 140 141 142 143
409 11 140 141 142 147
410 11 146 141 142 143
411 9 146 141 142 147
412 12 141 142 143 138
413 11 141 142 143 148
414 12 147 142 143 138
415 9 147 142 143 148
416 9 132 149 150 151
417 9 132 149 150 152
418 5 149 150 152 153
419 5 149 150 152 157
420 5 151 150 152 153
421 5 151 150 152 157
422 12 150 152 153 154
423 12 150 152 153 158
424 10 157 152 153 154
425 11 157 152 153 158
426 12 150 152 157 156
427 12 150 152 157 161
428 10 153 152 157 156
429 11 153 152 157 161
430 10 152 153 154 155
431 11 152 153 154 159
432 11 158 153 154 155
433 9 158 153 154 159
434 10 153 154 155 156
435 12 153 154 155 162
436 11 159 154 155 156
437 12 159 154 155 162
438 10 154 155 156 157
439 11 154 155 156 160
440 12 162 155 156 157
441 12 162 155 156 160
442 8 154 155 162 163
443 8 156 155 162 163
444 10 155 156 157 152
445 11 155 156 157 161
446 11 160 156 157 152
447 9 160 156 157 161
448 4 155 162 163 164
449 4 155 162 163 165
450 4 155 162 163 166
451 6 162 163 164 17
452 2 162 163 164 167
453 2 162 163 164 168
454 2 165 163 164 17
455 2 165 163 164 167
456 2 165 163 164 168
457 2 166 163 164 17
458 2 166 163 164 167
459 2 166 163 164 168
460 12 174 169 170 171
461 12 174 169 170 179
462 12 175 169 170 171
463 12 175 169 170 179
464 12 170 169 174 173
465 12 170 169 174 178
466 11 175 169 174 173
467 9 175 169 174 178
468 12 169 170 171 172
469 12 169 170 171 176
470 12 179 170 171 172
471 12 179 170 171 176
472 7 169 170 179 180
473 7 169 170 179 184
474 7 171 170 179 180