LAMMPS Description

455    atoms
459    bonds
616    angles
702    dihedrals
181    impropers

16     atom types
28     bond types
52     angle types
20     dihedral types
20     improper types

    30.36    67.08  xlo xhi
    -7.49    19.80  ylo yhi
     9.75    47.36  zlo zhi

Masses

   1  14.0067
   2  13.0190
   3  12.0110
   4  15.9994
   5  14.0270
   6  32.0600
   7  15.0350
   8  14.0067
   9  15.9994
  10  14.0067
  11  12.0110
  12  13.0190
  13  33.0680
  14  12.0110
  15  14.0067
  16  13.0190

Nonbond Coeffs

1          0.1500       2.9400
2          0.0486       4.0358
3          0.1410       3.3320
4          0.1591       2.7618
5          0.1142       3.9823
6          0.0430       3.5101
7          0.1811       3.8576
8          0.0900       3.2607
9          0.1591       2.9578
10         0.0900       3.2607
11         0.0500       3.6349
12         0.0903       3.5458
13         0.0430       3.3676
14         0.0500       3.6349
15         0.0900       3.0647
16         0.0903       3.7418

Bond Coeffs

1       390.00000      1.47000
2       279.00000      1.51500
3       268.00000      1.53000
4       640.00000      1.22500
5       350.00000      1.34500
6       268.00000      1.53000
7       237.00000      1.80000
8       237.00000      1.80000
9       386.00000      1.46000
10      268.00000      1.53000
11      498.12500      1.31212
12      268.00000      1.53000
13      390.00000      1.47000
14      279.00000      1.51500
15      455.00000      1.23000
16      491.26700      1.40847
17      390.00000      1.43200
18      345.00000      1.51000
19      450.00000      1.39000
20      450.00000      1.39000
21      268.00000      1.53000
22      491.87500      1.31212
23      226.00000      1.81000
24      345.00000      1.51000
25      390.00000      1.35000
26      450.00000      1.41000
27      390.00000      1.36000
28      610.00000      1.22700

Angle Coeffs

1        70.00000    111.60000
2        65.00000    109.47000
3        52.00000    109.60000
4        66.00000    122.60000
5        64.00000    113.90000
6        98.00000    125.10000
7        45.00000    112.50000
8        50.00000    112.50000
9        75.00000     98.00000
10       44.00000    117.60000
11       58.00000    112.80000
12       65.00000    109.47000
13       70.00000    109.47000
14       80.00000    109.47000
15       45.00000    110.30000
16       80.00000    109.80334
17       65.00000    109.47000
18       50.00000    112.50000
19       65.00000    109.47000
20       70.00000    109.47000
21       66.00000    122.60000
22       64.00000    113.90000
23       85.00000    118.50000
24       85.00000    123.00000
25       76.00000    111.00000
26       52.00000    109.60000
27       45.00000    112.50000
28       50.00000    112.50000
29       50.00000    112.50000
30       70.00000    109.47000
31       72.33300    110.49000
32       55.00000    150.00000
33       66.66700    119.33334
34       70.00000    109.47000
35       65.00000    120.00000
36       65.00000    120.00000
37       65.00000    120.00000
38       65.00000    120.00000
39       45.00000    110.30000
40       45.00000    112.50000
41       80.00000    109.47000
42       50.00000    112.50000
43       70.00000    109.47000
44       60.00000    122.00000
45       65.00000    126.00000
46       65.00000    112.00000
47       70.00000    106.00000
48       65.00000    112.00000
49       65.00000    104.00000
50       65.00000    106.00000
51       63.00000    120.00000
52       85.00000    118.50000

Dihedral Coeffs

1         2.60000     -1.00000    2 
2         2.60000     -1.00000    2 
3         0.35000     -1.00000    2 
4         0.20000      1.00000    3 
5         0.10000     -1.00000    3 
6         0.60000      1.00000    3 
7         2.60000     -1.00000    2 
8         1.60000      1.00000    3 
9         0.80000      1.00000    3 
10        0.17000      1.00000    3 
11        0.40000      1.00000    3 
12        0.10000     -1.00000    3 
13        1.00000     -1.00000    2 
14        0.10000      1.00000    3 
15        3.10000     -1.00000    2 
16        0.60000     -1.00000    2 
17        0.10000      1.00000    3 
18        2.05000     -1.00000    2 
19        3.10000     -1.00000    2 
20        1.12000     -1.00000    2 

Improper Coeffs

1       100.00000      0.00000
2       100.00000      0.00000
3         5.00000      0.00000
4        40.00000      0.00000
5        90.00000      0.00000
6        90.00000      0.00000
7        90.00000      0.00000
8        90.00000      0.00000
9        90.00000      0.00000
10       15.00000      0.00000
11       55.00000     32.00000
12      147.00000      0.00000
13       55.00000     32.00000
14       60.00000      0.00000
15       55.00000     35.26439
16       90.00000      0.00000
17      130.00000      0.00000
18      130.00000      0.00000
19       90.00000      0.00000
20       55.00000     35.26439

Atoms

1        1    1    -0.3000     30.8600     2.4420    17.7380
2        1    2     0.3850     32.3260     2.4790    17.5560
3        1    3     0.6000     32.8170     1.3610    16.6570
4        1    4    -0.5500     32.4580     0.1980    16.8230
5        1    5     0.1860     33.0180     2.3870    18.9120
6        1    5     0.2460     34.4230     3.0120    18.9040
7        1    6    -0.1200     35.3230     2.8070    20.4460
8        1    7     0.2460     34.1240     3.6320    21.5420
9        1    8    -0.4000     33.6910     1.7510    15.7140
10       1    2     0.2860     34.3450     0.6790    14.9570
11       1    3     0.6000     35.3870    -0.0680    15.7780
12       1    4    -0.5500     35.7140     0.3060    16.9010
13       1    2     0.1860     34.9580     1.1900    13.6460
14       1    4    -0.5500     35.9650     1.9990    13.8640
15       1    7     0.1860     33.9210     1.8730    12.7440
16       1    8    -0.4000     35.8870    -1.1560    15.1600
17       1    2     0.2860     36.9070    -1.9420    15.8670
18       1    3     0.6000     38.2680    -1.2720    15.9170
19       1    4    -0.5500     38.9840    -1.3450    16.9060
20       1    5     0.1860     36.9820    -3.3280    15.2420
21       1    5     0.1860     35.6380    -4.0530    15.4150
22       1    5     0.1860     35.5160    -5.2990    14.5150
23       1    5     0.1860     34.1230    -5.9230    14.6680
24       1    1    -0.3000     33.9590    -6.9920    13.6530
25       1    8    -0.4000     38.5700    -0.5870    14.7950
26       1    2     0.2850     39.7670     0.2580    14.7510
27       1    3     0.6000     39.7640     1.4280    15.7270
28       1    4    -0.5500     40.7980     1.8270    16.2580
29       1    5     0.1860     39.9850     0.7820    13.3350
30       1    5     0.1860     40.5520    -0.2910    12.3920
31       1    3     0.6000     40.6280     0.3000    11.0000
32       1    4    -0.5500     41.5940     0.9660    10.6230
33       1    8    -0.4000     39.5470     0.0240    10.2480
34       1    8    -0.4000     38.5400     1.9590    15.9360
35       1    2     0.2850     38.3880     3.0500    16.9010
36       1    3     0.6000     38.4930     2.6170    18.3510
37       1    4    -0.5500     38.8950     3.3910    19.2340
38       1    5     0.1860     37.0610     3.7740    16.7120
39       1    5     0.1860     37.0060     4.6820    15.4710
40       1    3     0.1400     35.6590     5.4160    15.4690
41       1    9    -0.5700     34.6470     4.8320    15.8680
42       1    9    -0.5700     35.6300     6.5970    15.0950
43       1    8    -0.4000     38.1140     1.3340    18.5550
44       1    2     0.2850     38.2890     0.7630    19.8900
45       1    3     0.6000     39.7390     0.4800    20.2310
46       1    4    -0.5500     40.1820     0.6900    21.3530
47       1    5     0.1860     37.4360    -0.4970    20.0760
48       1    5     0.1860     37.5110    -1.0100    21.5200
49       1    5     0.1860     36.7880    -2.3340    21.7660
50       1    5     0.1860     36.9480    -2.8060    23.2180
51       1    1    -0.3000     36.2500    -4.0910    23.3980
52       1    8    -0.4000     40.4670     0.0180    19.1990
53       1    2     0.2850     41.8950    -0.2400    19.3850
54       1    3     0.6000     42.6970     1.0150    19.7090
55       1    4    -0.5500     43.5970     1.0180    20.5460
56       1    2     0.1860     42.4620    -0.9460    18.1450
57       1    4    -0.5500     41.9670    -2.1570    18.0330
58       1    7     0.1860     43.9920    -1.0380    18.1540
59       1    8    -0.4000     42.3010     2.0940    19.0070
60       1    2     0.2850     42.9180     3.3930    19.2710
61       1    3     0.6000     42.6060     3.9590    20.6460
62       1    4    -0.5500     43.4340     4.6130    21.2890
63       1    7     0.1860     42.4670     4.4080    18.2220
64       1    8    -0.4000     41.3540     3.6650    21.0670
65       1    2     0.2850     40.8950     4.0890    22.3910
66       1    3     0.6000     41.5830     3.3720    23.5410
67       1    4    -0.5500     41.9460     3.9670    24.5500
68       1    5     0.1860     39.3780     3.9110    22.4830
69       1    2     0.1860     38.7910     4.1960    23.8690
70       1    7     0.1860     39.0510     5.6380    24.3160
71       1    7     0.1860     37.3070     3.8340    23.9320
72       1    8    -0.4000     41.7430     2.0550    23.3120
73       1    2     0.2850     42.4070     1.1920    24.2940
74       1    3     0.6000     43.8900     1.4760    24.4170
75       1    4    -0.5500     44.5060     1.3150    25.4640
76       1    5     0.1860     42.2470    -0.2880    23.9380
77       1    3     0.6000     40.8960    -0.8520    24.3830
78       1    4    -0.5500     40.0960    -0.2370    25.1140
79       1    8    -0.4000     40.6810    -2.0880    23.8830
80       1    8    -0.4000     44.4360     1.9080    23.2680
81       1    2     0.2850     45.8500     2.2540    23.2270
82       1    3     0.6000     46.1730     3.5710    23.9140
83       1    4    -0.5500     47.2320     3.7500    24.5170
84       1    5     0.1860     46.3170     2.2370    21.7740
85       1    5     0.2460     47.8280     2.4250    21.6290
86       1    6    -0.1200     48.3290     2.3390    19.8830
87       1    7     0.2460     50.0910     2.6120    20.1210
88       1    8    -0.4000     45.1870     4.4860    23.8110
89       1    2     0.2850     45.2970     5.7520    24.5320
90       1    3     0.6000     45.1330     5.6200    26.0350
91       1    4    -0.5500     45.7720     6.3170    26.8230
92       1    7     0.1860     44.2540     6.7410    24.0180
93       1    8    -0.4000     44.2460     4.6700    26.3990
94       1    2     0.2850     44.1130     4.3380    27.8220
95       1    3     0.6000     45.3590     3.6980    28.4040
96       1    4    -0.5500     45.7700     3.9810    29.5210
97       1    5     0.1860     42.8970     3.4420    28.0590
98       1    5     0.1860     42.6420     3.1670    29.5390
99       1    5     0.1860     41.4680     2.2240    29.7780
100      1   10    -0.4000     40.3060     2.6480    29.0990
101      1   11     0.0560     39.3050     2.4220    28.0880
102      1   10    -0.4000     39.3360     1.2420    27.2560
103      1   10    -0.4000     38.2570     3.4000    27.9000
104      1    8    -0.4000     45.9490     2.8240    27.5680
105      1    2     0.2850     47.1570     2.1090    27.9700
106      1    3     0.6000     48.3720     2.9990    28.1720
107      1    4    -0.5500     49.1770     2.7790    29.0680
108      1    5     0.1860     47.4380     0.9970    26.9470
109      1   11     0.1860     48.7060     0.2300    27.2590
110      1   12     0.1860     48.7370    -0.6610    28.3550
111      1   12     0.1860     49.8430     0.4210    26.4420
112      1   12     0.1860     49.9250    -1.3620    28.6450
113      1   12     0.1860     51.0310    -0.2800    26.7300
114      1   12     0.1860     51.0600    -1.1660    27.8290
115      1    8    -0.4000     48.4710     4.0050    27.2830
116      1    2     0.2860     49.5530     4.9770    27.4470
117      1    3     0.6000     49.4010     5.8440    28.6860
118      1    4    -0.5500     50.3710     6.1540    29.3670
119      1    2     0.1860     49.6830     5.8180    26.1690
120      1    5     0.1860     50.3990     4.9800    25.1040
121      1    7     0.1860     50.4590     7.1210    26.4110
122      1    7     0.1860     50.4610     5.6760    23.7440
123      1    8    -0.4000     48.1290     6.2010    28.9450
124      1    2     0.2860     47.8070     6.9590    30.1550
125      1    3     0.6000     48.1290     6.2420    31.4640
126      1    4    -0.5500     48.5600     6.8380    32.4520
127      1    5     0.1860     46.3370     7.3650    30.0910
128      1    5     0.1860     45.8390     8.0450    31.3640
129      1    5     0.1860     44.3220     8.2630    31.3840
130      1   10    -0.4000     43.9180     8.2960    32.7300
131      1   11     0.0560     43.8800     7.6770    34.0260
132      1   10    -0.4000     44.3250     6.3210    34.2130
133      1   10    -0.4000     43.4380     8.4410    35.1520
134      1    8    -0.4000     47.9020     4.9150    31.4190
135      1    2     0.2860     48.2420     4.1260    32.6030
136      1    3     0.6000     49.7400     3.9730    32.8030
137      1    4    -0.5500     50.2510     4.0420    33.9150
138      1    5     0.1860     47.5740     2.7520    32.5410
139      1    4    -0.5500     46.2640     2.8770    32.6380
140      1    8    -0.4000     50.4210     3.7820    31.6520
141      1    2     0.2860     51.8800     3.6370    31.6660
142      1    3     0.6000     52.6700     4.8540    32.1100
143      1    4    -0.5500     53.7440     4.7350    32.6910
144      1    5     0.1860     52.3930     3.2200    30.2900
145      1    5     0.1860     52.1580     1.7530    29.9380
146      1    3     0.6000     53.0620     0.8620    30.7580
147      1    4    -0.5500     52.6730     0.2890    31.7690
148      1    8    -0.4000     54.2970     0.7510    30.2400
149      1    8    -0.4000     52.1010     6.0350    31.7940
150      1    2     0.2860     52.7690     7.2520    32.2580
151      1    3     0.6000     52.6520     7.4900    33.7540
152      1    4    -0.5500     53.5020     8.1200    34.3730
153      1    2     0.1860     52.3050     8.4830    31.4710
154      1    4    -0.5500     51.0030     8.4780    31.2980
155      1    7     0.1860     53.0030     8.5730    30.1150
156      1    8    -0.4000     51.5630     6.9230    34.3090
157      1    2     0.2850     51.3920     6.9400    35.7600
158      1    3     0.6000     52.3040     5.9730    36.5010
159      1    4    -0.5500     52.8090     6.2670    37.5830
160      1    5     0.1860     49.9190     6.6950    36.0950
161      1    2     0.1860     49.5950     6.6170    37.5900
162      1    7     0.1860     50.0910     7.8470    38.3610
163      1    7     0.1860     48.1010     6.3600    37.8170
164      1    8    -0.4000     52.5080     4.8110    35.8510
165      1    2     0.2850     53.4440     3.8280    36.3990
166      1    3     0.6000     54.8930     4.3080    36.3810
167      1    4    -0.5500     55.6700     4.0850    37.3030
168      1    2     0.1860     53.2960     2.4980    35.6440
169      1    4    -0.5500     52.0620     2.0600    35.7310
170      1    7     0.1860     54.2580     1.3980    36.1220
171      1    8    -0.4000     55.2160     5.0010    35.2740
172      1    2     0.2850     56.5470     5.5930    35.1560
173      1    3     0.6000     56.8050     6.7720    36.0830
174      1    4    -0.5500     57.9300     7.0090    36.5240
175      1    5     0.1860     56.8030     5.9800    33.6990
176      1    2     0.1860     58.1300     6.7170    33.4520
177      1    7     0.1860     59.3620     5.8900    33.8570
178      1    7     0.1860     58.2130     7.2300    32.0140
179      1    8    -0.4000     55.7030     7.5000    36.3640
180      1    2     0.2850     55.8050     8.5890    37.3360
181      1    3     0.6000     56.2020     8.1090    38.7200
182      1    4    -0.5500     57.0570     8.6950    39.3700
183      1    5     0.1860     54.4910     9.3770    37.3660
184      1    2     0.1860     54.3700    10.4390    38.4670
185      1    7     0.1860     55.4810    11.4880    38.4120
186      1    7     0.1860     52.9840    11.0850    38.4560
187      1    8    -0.4000     55.5550     6.9940    39.1100
188      1    2     0.2850     55.8910     6.3870    40.3970
189      1    3     0.6000     57.2910     5.8160    40.4970
190      1    4    -0.5500     57.9210     5.8680    41.5450
191      1    5     0.1860     54.8550     5.3290    40.7830
192      1    5     0.1860     53.4990     5.9350    41.1720
193      1    3     0.1400     53.6530     6.7720    42.4330
194      1    9    -0.5700     53.7800     6.1950    43.5150
195      1    9    -0.5700     53.6460     8.0030    42.3250
196      1    8    -0.4000     57.7720     5.2880    39.3530
197      1    2     0.2850     59.1510     4.7940    39.3730
198      1    3     0.6000     60.2060     5.8810    39.4710
199      1    4    -0.5500     61.2610     5.7110    40.0770
200      1    5     0.1860     59.4660     3.9400    38.1470
201      1    5     0.1860     58.7310     2.6010    38.1010
202      1    5     0.1860     59.2400     1.7470    36.9130
203      1    5     0.1860     58.4990     0.4190    36.7460
204      1    1    -0.3000     58.6130    -0.3760    38.0150
205      1    8    -0.4000     59.8680     7.0160    38.8280
206      1    2     0.2860     60.7470     8.1790    38.9320
207      1    3     0.6000     60.7530     8.8340    40.2960
208      1    4    -0.5500     61.7610     9.3750    40.7340
209      1    5     0.1860     60.3990     9.2080    37.8610
210      1    2     0.1860     60.9660     8.8180    36.4960
211      1    7     0.1860     60.4100     9.6900    35.3740
212      1    7     0.1860     62.4960     8.7970    36.4970
213      1    8    -0.4000     59.5750     8.7370    40.9440
214      1    2     0.2860     59.4560     9.2180    42.3230
215      1    3     0.6000     60.2250     8.3810    43.3290
216      1    4    -0.5500     60.7820     8.8780    44.3010
217      1    5     0.1860     57.9830     9.3230    42.7350
218      1    3     0.6000     57.3590    10.5590    42.1030
219      1    4    -0.5500     58.0110    11.5780    41.8830
220      1    8    -0.4000     56.0530    10.4240    41.8170
221      1    8    -0.4000     60.2560     7.0690    43.0250
222      1    2     0.2860     61.0960     6.1720    43.8220
223      1    3     0.6000     62.5890     6.4200    43.6690
224      1    4    -0.5500     63.3770     6.2180    44.5850
225      1    5     0.1860     60.8010     4.7160    43.4800
226      1    5     0.1860     59.6290     4.1120    44.2620
227      1    3     0.1400     59.3750     2.6820    43.8000
228      1    9    -0.5700     60.3080     2.0210    43.3450
229      1    9    -0.5700     58.2290     2.2320    43.8990
230      1    8    -0.4000     62.9420     6.8660    42.4480
231      1    2     0.2860     64.3530     7.1380    42.1790
232      1    3     0.6000     64.8550     8.5010    42.6300
233      1    4    -0.5500     66.0280     8.8200    42.4780
234      1    5     0.1860     64.6420     6.9480    40.6890
235      1    2     0.1860     64.7750     5.4740    40.2860
236      1    7     0.1860     64.7710     5.2970    38.7630
237      1    7     0.1860     65.9890     4.8120    40.9470
238      1    8    -0.4000     63.8940     9.2950    43.1550
239      1    2     0.2850     64.1500    10.7020    43.4840
240      1    3     0.6000     64.6930    11.5400    42.3350
241      1    4    -0.5500     65.5080    12.4320    42.4990
242      1    5     0.1860     65.0400    10.8450    44.7270
243      1    3     0.1400     64.2460    11.4910    45.8440
244      1    9    -0.5700     63.8550    12.6480    45.7010
245      1    9    -0.5700     64.0210    10.8290    46.8580
246      1    8    -0.4000     64.2030    11.1670    41.1340
247      1    2     0.2850     64.6320    11.8930    39.9430
248      1    3     0.6000     63.7010    13.0420    39.6240
249      1    4    -0.5500     62.7560    12.9060    38.8580
250      1    7     0.1860     64.6790    10.9410    38.7500
251      1    8    -0.4000     64.0150    14.1720    40.2810
252      1    2     0.2850     63.0860    15.3040    40.3340
253      1    3     0.6000     62.6100    15.9180    39.0210
254      1    4    -0.5500     61.4140    16.0570    38.7930
255      1    5     0.1860     63.5690    16.3680    41.3430
256      1    3     0.1400     64.9500    16.9740    41.0720
257      1    9    -0.5700     65.6840    16.4910    40.2030
258      1    9    -0.5700     65.2920    17.9420    41.7530
259      1    8    -0.4000     63.5800    16.2570    38.1510
260      1    2     0.2850     63.2150    16.8780    36.8760
261      1    3     0.6000     62.4560    15.9490    35.9400
262      1    4    -0.5500     61.5450    16.3360    35.2180
263      1    5     0.1860     64.4700    17.4140    36.1860
264      1    5     0.1860     64.2050    18.0660    34.8150
265      1    3     0.1400     65.5120    18.4260    34.1050
266      1    9    -0.5700     66.5820    18.3390    34.7100
267      1    9    -0.5700     65.4520    18.7960    32.9290
268      1    8    -0.4000     62.8910    14.6770    35.9910
269      1    2     0.2850     62.2510    13.6530    35.1680
270      1    3     0.6000     60.8430    13.2990    35.6120
271      1    4    -0.5500     59.9870    12.9340    34.8080
272      1    5     0.1860     63.0980    12.3800    35.1400
273      1    5     0.1860     64.3330    12.3850    34.2260
274      1    3     0.6000     65.3910    13.3650    34.6990
275      1    4    -0.5500     65.8550    14.2280    33.9380
276      1    8    -0.4000     65.7610    13.1850    35.9870
277      1    8    -0.4000     60.6550    13.4220    36.9420
278      1    2     0.2850     59.3290    13.2480    37.5360
279      1    3     0.6000     58.3450    14.3410    37.1770
280      1    4    -0.5500     57.1680    14.0850    36.9520
281      1    7     0.1860     59.4210    13.1690    39.0620
282      1    8    -0.4000     58.8970    15.5670    37.1120
283      1    2     0.2850     58.0790    16.7230    36.7320
284      1    3     0.6000     57.6130    16.6800    35.2900
285      1    4    -0.5500     56.4850    17.0290    34.9550
286      1    5     0.1860     58.8320    18.0360    36.9720
287      1    3     0.1400     58.5900    18.5960    38.3660
288      1    9    -0.5700     57.5300    18.3470    38.9440
289      1    9    -0.5700     59.4700    19.2970    38.8700
290      1    8    -0.4000     58.5480    16.2080    34.4390
291      1    2     0.2860     58.2130    16.0170    33.0270
292      1    3     0.6000     57.2050    14.8940    32.8030
293      1    4    -0.5500     56.3440    14.9630    31.9320
294      1    2     0.1860     59.5030    15.7760    32.2210
295      1    5     0.1860     60.2830    17.0840    32.0330
296      1    7     0.1860     59.2050    15.1450    30.8510
297      1    7     0.1860     61.6610    16.8770    31.3990
298      1    8    -0.4000     57.3670    13.8440    33.6300
299      1    2     0.2860     56.4520    12.7090    33.5340
300      1    3     0.6000     55.0470    12.9650    34.0610
301      1    4    -0.5500     54.0860    12.3360    33.6420
302      1    5     0.3750     57.0700    11.4910    34.2140
303      1   13    -0.1900     56.2760     9.9190    33.7850
304      1    8    -0.4000     54.9870    13.9320    34.9990
305      1    2     0.2860     53.6970    14.3970    35.5110
306      1    3     0.6000     52.8760    15.1350    34.4730
307      1    4    -0.5500     51.6990    14.8640    34.2620
308      1    5     0.1860     53.9340    15.2520    36.7530
309      1    5     0.1860     52.7050    16.0140    37.2530
310      1    3     0.1400     53.0430    16.5990    38.6050
311      1    9    -0.5700     52.8730    15.8910    39.5980
312      1    9    -0.5700     53.4740    17.7480    38.6630
313      1    8    -0.4000     53.5900    16.0540    33.7990
314      1    2     0.2860     53.0260    16.7610    32.6490
315      1    3     0.6000     52.6580    15.8420    31.4880
316      1    4    -0.5500     51.6990    16.0520    30.7570
317      1    5     0.1860     54.0350    17.8350    32.2220
318      1    4    -0.5500     53.7290    18.3270    31.0400
319      1    8    -0.4000     53.4790    14.7790    31.3670
320      1    2     0.2860     53.2180    13.7950    30.3180
321      1    3     0.6000     51.9940    12.9240    30.5570
322      1    4    -0.5500     51.3090    12.5200    29.6230
323      1    5     0.1860     54.4620    12.9280    30.1220
324      1    2     0.1860     54.3750    11.9120    28.9810
325      1    7     0.1860     54.2350    12.5790    27.6090
326      1    7     0.1860     55.5410    10.9230    29.0410
327      1    8    -0.4000     51.7630    12.6570    31.8570
328      1    2     0.2860     50.5390    11.9620    32.2600
329      1    3     0.6000     49.2680    12.7580    32.0050
330      1    4    -0.5500     48.2540    12.2260    31.5700
331      1    5     0.1860     50.6480    11.5570    33.7350
332      1   14     0.2860     49.2910    11.1790    34.2860
333      1   15    -0.4000     48.5950    10.0980    33.8960
334      1   16     0.2860     48.5430    11.8790    35.2390
335      1   16     0.5150     47.4100    10.1060    34.5830
336      1   15    -0.4000     47.3810    11.1990    35.4100
337      1    8    -0.4000     49.3830    14.0640    32.2980
338      1    2     0.2860     48.2380    14.9450    32.0520
339      1    3     0.6000     47.9100    15.0950    30.5780
340      1    4    -0.5500     46.7620    15.1080    30.1610
341      1    5     0.1860     48.4540    16.3210    32.6920
342      1    3     0.1400     48.4950    16.2380    34.2160
343      1    9    -0.5700     47.9650    15.2850    34.7890
344      1    9    -0.5700     49.0560    17.1440    34.8330
345      1    8    -0.4000     49.0040    15.1640    29.8000
346      1    2     0.2850     48.9140    15.2240    28.3420
347      1    3     0.6000     48.3100    13.9660    27.7250
348      1    4    -0.5500     47.5890    13.9980    26.7310
349      1    5     0.1860     50.3320    15.4820    27.8160
350      1   14     0.2850     50.4220    15.6990    26.3230
351      1   15    -0.4000     51.5720    16.0570    25.7160
352      1   16     0.2850     49.4180    15.5910    25.3440
353      1   16     0.5150     51.3120    16.1760    24.3770
354      1   15    -0.4000     49.9880    15.8870    24.1500
355      1    8    -0.4000     48.6500    12.8420    28.3820
356      1    2     0.2850     48.0950    11.5550    27.9690
357      1    3     0.6000     46.6330    11.3480    28.3250
358      1    4    -0.5500     45.8870    10.6870    27.6090
359      1    7     0.1860     48.9040    10.4070    28.5700
360      1    8    -0.4000     46.2620    11.9570    29.4660
361      1    2     0.2850     44.8550    12.0000    29.8710
362      1    3     0.6000     43.9920    12.8080    28.9150
363      1    4    -0.5500     42.8940    12.4150    28.5360
364      1    5     0.1860     44.7560    12.5230    31.3100
365      1    3     0.1400     43.3080    12.6380    31.7450
366      1    9    -0.5700     42.5960    11.6310    31.6920
367      1    9    -0.5700     42.8960    13.7410    32.1090
368      1    8    -0.4000     44.5730    13.9540    28.5140
369      1    2     0.2850     43.9040    14.8340    27.5550
370      1    3     0.6000     43.5920    14.1670    26.2250
371      1    4    -0.5500     42.5380    14.3680    25.6300
372      1    5     0.1860     44.7460    16.0880    27.3280
373      1    5     0.1860     44.7670    17.0580    28.5180
374      1    3     0.1400     45.8490    18.1200    28.3460
375      1    9    -0.5700     46.4630    18.2050    27.2810
376      1    9    -0.5700     46.0790    18.8630    29.3010
377      1    8    -0.4000     44.5620    13.3360    25.7980
378      1    2     0.2850     44.3480    12.5680    24.5730
379      1    3     0.6000     43.3200    11.4520    24.6970
380      1    4    -0.5500     42.5350    11.1890    23.7870
381      1    5     0.1860     45.6890    12.0070    24.1060
382      1    2     0.1860     45.5880    10.9490    22.9990
383      1    7     0.1860     44.9240    11.4800    21.7200
384      1    7     0.1860     46.9490    10.3060    22.7380
385      1    8    -0.4000     43.3740    10.7880    25.8660
386      1    2     0.2850     42.3990     9.7340    26.1520
387      1    3     0.6000     40.9510    10.2140    26.1790
388      1    4    -0.5500     40.0260     9.5210    25.7470
389      1    5     0.1860     42.8060     9.0400    27.4640
390      1   11     0.1860     41.6310     8.4120    28.1940
391      1   12     0.1860     40.8580     7.4170    27.5580
392      1   12     0.1860     41.3350     8.8690    29.4940
393      1   12     0.1860     39.7300     6.9060    28.2200
394      1   12     0.1860     40.2140     8.3460    30.1630
395      1   11     0.4350     39.4170     7.3880    29.5070
396      1    4    -0.5500     38.4070     6.9750    30.0670
397      1    8    -0.4000     40.8190    11.4360    26.7300
398      1    2     0.2850     39.5040    12.0570    26.8470
399      1    3     0.6000     38.9690    12.6590    25.5600
400      1    4    -0.5500     37.7700    12.6620    25.3020
401      1    5     0.1860     39.5330    13.0680    27.9840
402      1    5     0.1860     39.2490    12.3540    29.3050
403      1    5     0.1860     39.2420    13.2870    30.5250
404      1   10    -0.4000     38.3020    12.7980    31.4490
405      1   11     0.0560     37.5320    11.6930    31.9720
406      1   10    -0.4000     37.5990    10.3960    31.3450
407      1   10    -0.4000     36.6660    11.9020    33.1100
408      1    8    -0.4000     39.9290    13.1340    24.7430
409      1    2     0.2850     39.5900    13.5910    23.3930
410      1    3     0.6000     39.0980    12.4640    22.4890