LAMMPS Description

210 atoms
0 bonds
0 angles
0 dihedrals
0 impropers

2 atom types

-9.12871 9.12871 xlo xhi
-9.12871 9.12871 ylo yhi

Masses

1 1 
2 1 

Atoms

1 0 2 0 -9.12871 -9.12871 0 
2 0 2 0 -7.30297 -9.12871 0 
3 0 2 0 -5.47723 -9.12871 0 
4 0 2 0 -3.65148 -9.12871 0 
5 0 2 0 -1.82574 -9.12871 0 
6 0 2 0 0 -9.12871 0 
7 0 2 0 1.82574 -9.12871 0 
8 0 2 0 3.65148 -9.12871 0 
9 0 2 0 5.47723 -9.12871 0 
10 0 2 0 7.30297 -9.12871 0 
11 0 2 0 -8.21584 -8.21584 0 
12 0 2 0 -6.3901 -8.21584 0 
13 0 2 0 -4.56435 -8.21584 0 
14 0 2 0 -2.73861 -8.21584 0 
15 0 2 0 -0.912871 -8.21584 0 
16 0 2 0 0.912871 -8.21584 0 
17 0 2 0 2.73861 -8.21584 0 
18 0 2 0 4.56435 -8.21584 0 
19 0 2 0 6.3901 -8.21584 0 
20 0 2 0 8.21584 -8.21584 0 
21 0 1 0 -9.12871 -7.30297 0 
22 0 1 0 -7.30297 -7.30297 0 
23 0 1 0 -5.47723 -7.30297 0 
24 0 1 0 -3.65148 -7.30297 0 
25 0 1 0 -1.82574 -7.30297 0 
26 0 1 0 0 -7.30297 0 
27 0 1 0 1.82574 -7.30297 0 
28 0 1 0 3.65148 -7.30297 0 
29 0 1 0 5.47723 -7.30297 0 
30 0 1 0 7.30297 -7.30297 0 
31 0 1 0 -8.21584 -6.3901 0 
32 0 1 0 -6.3901 -6.3901 0 
33 0 1 0 -4.56435 -6.3901 0 
34 0 1 0 -2.73861 -6.3901 0 
35 0 1 0 -0.912871 -6.3901 0 
36 0 1 0 0.912871 -6.3901 0 
37 0 1 0 2.73861 -6.3901 0 
38 0 1 0 4.56435 -6.3901 0 
39 0 1 0 6.3901 -6.3901 0 
40 0 1 0 8.21584 -6.3901 0 
41 0 1 0 -9.12871 -5.47723 0 
42 0 1 0 -7.30297 -5.47723 0 
43 0 1 0 -5.47723 -5.47723 0 
44 0 1 0 -3.65148 -5.47723 0 
45 0 1 0 -1.82574 -5.47723 0 
46 0 1 0 0 -5.47723 0 
47 0 1 0 1.82574 -5.47723 0 
48 0 1 0 3.65148 -5.47723 0 
49 0 1 0 5.47723 -5.47723 0 
50 0 1 0 7.30297 -5.47723 0 
51 0 1 0 -8.21584 -4.56435 0 
52 0 1 0 -6.3901 -4.56435 0 
53 0 1 0 -4.56435 -4.56435 0 
54 0 1 0 -2.73861 -4.56435 0 
55 0 1 0 -0.912871 -4.56435 0 
56 0 1 0 0.912871 -4.56435 0 
57 0 1 0 2.73861 -4.56435 0 
58 0 1 0 4.56435 -4.56435 0 
59 0 1 0 6.3901 -4.56435 0 
60 0 1 0 8.21584 -4.56435 0 
61 0 1 0 -9.12871 -3.65148 0 
62 0 1 0 -7.30297 -3.65148 0 
63 0 1 0 -5.47723 -3.65148 0 
64 0 1 0 -3.65148 -3.65148 0 
65 0 1 0 -1.82574 -3.65148 0 
66 0 1 0 0 -3.65148 0 
67 0 1 0 1.82574 -3.65148 0 
68 0 1 0 3.65148 -3.65148 0 
69 0 1 0 5.47723 -3.65148 0 
70 0 1 0 7.30297 -3.65148 0 
71 0 1 0 -8.21584 -2.73861 0 
72 0 1 0 -6.3901 -2.73861 0 
73 0 1 0 -4.56435 -2.73861 0 
74 0 1 0 -2.73861 -2.73861 0 
75 0 1 0 -0.912871 -2.73861 0 
76 0 1 0 0.912871 -2.73861 0 
77 0 1 0 2.73861 -2.73861 0 
78 0 1 0 4.56435 -2.73861 0 
79 0 1 0 6.3901 -2.73861 0 
80 0 1 0 8.21584 -2.73861 0 
81 0 1 0 -9.12871 -1.82574 0 
82 0 1 0 -7.30297 -1.82574 0 
83 0 1 0 -5.47723 -1.82574 0 
84 0 1 0 -3.65148 -1.82574 0 
85 0 1 0 -1.82574 -1.82574 0 
86 0 1 0 0 -1.82574 0 
87 0 1 0 1.82574 -1.82574 0 
88 0 1 0 3.65148 -1.82574 0 
89 0 1 0 5.47723 -1.82574 0 
90 0 1 0 7.30297 -1.82574 0 
91 0 1 0 -8.21584 -0.912871 0 
92 0 1 0 -6.3901 -0.912871 0 
93 0 1 0 -4.56435 -0.912871 0 
94 0 1 0 -2.73861 -0.912871 0 
95 0 1 0 -0.912871 -0.912871 0 
96 0 1 0 0.912871 -0.912871 0 
97 0 1 0 2.73861 -0.912871 0 
98 0 1 0 4.56435 -0.912871 0 
99 0 1 0 6.3901 -0.912871 0 
100 0 1 0 8.21584 -0.912871 0 
101 0 1 0 -9.12871 0 0 
102 0 1 0 -7.30297 0 0 
103 0 1 0 -5.47723 0 0 
104 0 1 0 -3.65148 0 0 
105 0 1 0 -1.82574 0 0 
106 0 1 0 0 0 0 
107 0 1 0 1.82574 0 0 
108 0 1 0 3.65148 0 0 
109 0 1 0 5.47723 0 0 
110 0 1 0 7.30297 0 0 
111 0 1 0 -8.21584 0.912871 0 
112 0 1 0 -6.3901 0.912871 0 
113 0 1 0 -4.56435 0.912871 0 
114 0 1 0 -2.73861 0.912871 0 
115 0 1 0 -0.912871 0.912871 0 
116 0 1 0 0.912871 0.912871 0 
117 0 1 0 2.73861 0.912871 0 
118 0 1 0 4.56435 0.912871 0 
119 0 1 0 6.3901 0.912871 0 
120 0 1 0 8.21584 0.912871 0 
121 0 1 0 -9.12871 1.82574 0 
122 0 1 0 -7.30297 1.82574 0 
123 0 1 0 -5.47723 1.82574 0 
124 0 1 0 -3.65148 1.82574 0 
125 0 1 0 -1.82574 1.82574 0 
126 0 1 0 0 1.82574 0 
127 0 1 0 1.82574 1.82574 0 
128 0 1 0 3.65148 1.82574 0 
129 0 1 0 5.47723 1.82574 0 
130 0 1 0 7.30297 1.82574 0 
131 0 1 0 -8.21584 2.73861 0 
132 0 1 0 -6.3901 2.73861 0 
133 0 1 0 -4.56435 2.73861 0 
134 0 1 0 -2.73861 2.73861 0 
135 0 1 0 -0.912871 2.73861 0 
136 0 1 0 0.912871 2.73861 0 
137 0 1 0 2.73861 2.73861 0 
138 0 1 0 4.56435 2.73861 0 
139 0 1 0 6.3901 2.73861 0 
140 0 1 0 8.21584 2.73861 0 
141 0 1 0 -9.12871 3.65148 0 
142 0 1 0 -7.30297 3.65148 0 
143 0 1 0 -5.47723 3.65148 0 
144 0 1 0 -3.65148 3.65148 0 
145 0 1 0 -1.82574 3.65148 0 
146 0 1 0 0 3.65148 0 
147 0 1 0 1.82574 3.65148 0 
148 0 1 0 3.65148 3.65148 0 
149 0 1 0 5.47723 3.65148 0 
150 0 1 0 7.30297 3.65148 0 
151 0 1 0 -8.21584 4.56435 0 
152 0 1 0 -6.3901 4.56435 0 
153 0 1 0 -4.56435 4.56435 0 
154 0 1 0 -2.73861 4.56435 0 
155 0 1 0 -0.912871 4.56435 0 
156 0 1 0 0.912871 4.56435 0 
157 0 1 0 2.73861 4.56435 0 
158 0 1 0 4.56435 4.56435 0 
159 0 1 0 6.3901 4.56435 0 
160 0 1 0 8.21584 4.56435 0 
161 0 1 0 -9.12871 5.47723 0 
162 0 1 0 -7.30297 5.47723 0 
163 0 1 0 -5.47723 5.47723 0 
164 0 1 0 -3.65148 5.47723 0 
165 0 1 0 -1.82574 5.47723 0 
166 0 1 0 0 5.47723 0 
167 0 1 0 1.82574 5.47723 0 
168 0 1 0 3.65148 5.47723 0 
169 0 1 0 5.47723 5.47723 0 
170 0 1 0 7.30297 5.47723 0 
171 0 1 0 -8.21584 6.3901 0 
172 0 1 0 -6.3901 6.3901 0 
173 0 1 0 -4.56435 6.3901 0 
174 0 1 0 -2.73861 6.3901 0 
175 0 1 0 -0.912871 6.3901 0 
176 0 1 0 0.912871 6.3901 0 
177 0 1 0 2.73861 6.3901 0 
178 0 1 0 4.56435 6.3901 0 
179 0 1 0 6.3901 6.3901 0 
180 0 1 0 8.21584 6.3901 0 
181 0 1 0 -9.12871 7.30297 0 
182 0 1 0 -7.30297 7.30297 0 
183 0 1 0 -5.47723 7.30297 0 
184 0 1 0 -3.65148 7.30297 0 
185 0 1 0 -1.82574 7.30297 0 
186 0 1 0 0 7.30297 0 
187 0 1 0 1.82574 7.30297 0 
188 0 1 0 3.65148 7.30297 0 
189 0 1 0 5.47723 7.30297 0 
190 0 1 0 7.30297 7.30297 0 
191 0 2 0 -8.21584 8.21584 0 
192 0 2 0 -6.3901 8.21584 0 
193 0 2 0 -4.56435 8.21584 0 
194 0 2 0 -2.73861 8.21584 0 
195 0 2 0 -0.912871 8.21584 0 
196 0 2 0 0.912871 8.21584 0 
197 0 2 0 2.73861 8.21584 0 
198 0 2 0 4.56435 8.21584 0 
199 0 2 0 6.3901 8.21584 0 
200 0 2 0 8.21584 8.21584 0 
201 0 2 0 -9.12871 9.12871 0 
202 0 2 0 -7.30297 9.12871 0 
203 0 2 0 -5.47723 9.12871 0 
204 0 2 0 -3.65148 9.12871 0 
205 0 2 0 -1.82574 9.12871 0 
206 0 2 0 0 9.12871 0 
207 0 2 0 1.82574 9.12871 0 
208 0 2 0 3.65148 9.12871 0 
209 0 2 0 5.47723 9.12871 0 
210 0 2 0 7.30297 9.12871 0 
