LAMMPS Description

250 atoms
40 bonds
0 angles
0 dihedrals
0 impropers

3 atom types
1 bond types

-7.90569 7.90569 xlo xhi
-7.90569 7.90569 ylo yhi

Masses

1 1 
2 1 
3 1 

Atoms

1 0 2 0 -7.90569 -7.90569 0 
2 0 2 0 -6.32456 -7.90569 0 
3 0 2 0 -4.74342 -7.90569 0 
4 0 2 0 -3.16228 -7.90569 0 
5 0 2 0 -1.58114 -7.90569 0 
6 0 2 0 0 -7.90569 0 
7 0 2 0 1.58114 -7.90569 0 
8 0 2 0 3.16228 -7.90569 0 
9 0 2 0 4.74342 -7.90569 0 
10 0 2 0 6.32456 -7.90569 0 
11 0 2 0 -7.11512 -7.11512 0 
12 0 2 0 -5.53399 -7.11512 0 
13 0 2 0 -3.95285 -7.11512 0 
14 0 2 0 -2.37171 -7.11512 0 
15 0 2 0 -0.790569 -7.11512 0 
16 0 2 0 0.790569 -7.11512 0 
17 0 2 0 2.37171 -7.11512 0 
18 0 2 0 3.95285 -7.11512 0 
19 0 2 0 5.53399 -7.11512 0 
20 0 2 0 7.11512 -7.11512 0 
21 0 1 0 -7.90569 -6.32456 0 
22 0 1 0 -6.32456 -6.32456 0 
23 0 1 0 -4.74342 -6.32456 0 
24 0 1 0 -3.16228 -6.32456 0 
25 0 1 0 -1.58114 -6.32456 0 
26 0 1 0 0 -6.32456 0 
27 0 1 0 1.58114 -6.32456 0 
28 0 1 0 3.16228 -6.32456 0 
29 0 1 0 4.74342 -6.32456 0 
30 0 1 0 6.32456 -6.32456 0 
31 0 1 0 -7.11512 -5.53399 0 
32 0 1 0 -5.53399 -5.53399 0 
33 0 1 0 -3.95285 -5.53399 0 
34 0 1 0 -2.37171 -5.53399 0 
35 0 1 0 -0.790569 -5.53399 0 
36 0 1 0 0.790569 -5.53399 0 
37 0 1 0 2.37171 -5.53399 0 
38 0 1 0 3.95285 -5.53399 0 
39 0 1 0 5.53399 -5.53399 0 
40 0 1 0 7.11512 -5.53399 0 
41 0 1 0 -7.90569 -4.74342 0 
42 0 1 0 -6.32456 -4.74342 0 
43 0 1 0 -4.74342 -4.74342 0 
44 0 1 0 -3.16228 -4.74342 0 
45 0 1 0 -1.58114 -4.74342 0 
46 0 1 0 0 -4.74342 0 
47 0 1 0 1.58114 -4.74342 0 
48 0 1 0 3.16228 -4.74342 0 
49 0 1 0 4.74342 -4.74342 0 
50 0 1 0 6.32456 -4.74342 0 
51 0 1 0 -7.11512 -3.95285 0 
52 0 1 0 -5.53399 -3.95285 0 
53 0 1 0 -3.95285 -3.95285 0 
54 0 1 0 -2.37171 -3.95285 0 
55 0 1 0 -0.790569 -3.95285 0 
56 0 1 0 0.790569 -3.95285 0 
57 0 1 0 2.37171 -3.95285 0 
58 0 1 0 3.95285 -3.95285 0 
59 0 1 0 5.53399 -3.95285 0 
60 0 1 0 7.11512 -3.95285 0 
61 0 1 0 -7.90569 -3.16228 0 
62 0 1 0 -6.32456 -3.16228 0 
63 0 1 0 -4.74342 -3.16228 0 
64 0 1 0 -3.16228 -3.16228 0 
65 0 1 0 -1.58114 -3.16228 0 
66 0 1 0 0 -3.16228 0 
67 0 1 0 1.58114 -3.16228 0 
68 0 1 0 3.16228 -3.16228 0 
69 0 1 0 4.74342 -3.16228 0 
70 0 1 0 6.32456 -3.16228 0 
71 0 1 0 -7.11512 -2.37171 0 
72 0 1 0 -5.53399 -2.37171 0 
73 0 1 0 -3.95285 -2.37171 0 
74 0 1 0 -2.37171 -2.37171 0 
75 0 1 0 -0.790569 -2.37171 0 
76 0 1 0 0.790569 -2.37171 0 
77 0 1 0 2.37171 -2.37171 0 
78 0 1 0 3.95285 -2.37171 0 
79 0 1 0 5.53399 -2.37171 0 
80 0 1 0 7.11512 -2.37171 0 
81 0 1 0 -7.90569 -1.58114 0 
82 0 1 0 -6.32456 -1.58114 0 
83 0 1 0 -4.74342 -1.58114 0 
84 0 1 0 -3.16228 -1.58114 0 
85 0 1 0 -1.58114 -1.58114 0 
86 0 1 0 0 -1.58114 0 
87 0 1 0 1.58114 -1.58114 0 
88 0 1 0 3.16228 -1.58114 0 
89 0 1 0 4.74342 -1.58114 0 
90 0 1 0 6.32456 -1.58114 0 
91 0 1 0 -7.11512 -0.790569 0 
92 0 1 0 -5.53399 -0.790569 0 
93 0 1 0 -3.95285 -0.790569 0 
94 0 1 0 -2.37171 -0.790569 0 
95 0 1 0 -0.790569 -0.790569 0 
96 0 1 0 0.790569 -0.790569 0 
97 0 1 0 2.37171 -0.790569 0 
98 0 1 0 3.95285 -0.790569 0 
99 0 1 0 5.53399 -0.790569 0 
100 0 1 0 7.11512 -0.790569 0 
101 0 1 0 -7.90569 0 0 
102 0 1 0 -6.32456 0 0 
103 0 1 0 -4.74342 0 0 
104 0 1 0 -3.16228 0 0 
105 0 1 0 -1.58114 0 0 
106 0 1 0 0 0 0 
107 0 1 0 1.58114 0 0 
108 0 1 0 3.16228 0 0 
109 0 1 0 4.74342 0 0 
110 0 1 0 6.32456 0 0 
111 0 1 0 -7.11512 0.790569 0 
112 0 1 0 -5.53399 0.790569 0 
113 0 1 0 -3.95285 0.790569 0 
114 0 1 0 -2.37171 0.790569 0 
115 0 1 0 -0.790569 0.790569 0 
116 0 1 0 0.790569 0.790569 0 
117 0 1 0 2.37171 0.790569 0 
118 0 1 0 3.95285 0.790569 0 
119 0 1 0 5.53399 0.790569 0 
120 0 1 0 7.11512 0.790569 0 
121 0 1 0 -7.90569 1.58114 0 
122 0 1 0 -6.32456 1.58114 0 
123 0 1 0 -4.74342 1.58114 0 
124 0 1 0 -3.16228 1.58114 0 
125 0 1 0 -1.58114 1.58114 0 
126 0 1 0 0 1.58114 0 
127 0 1 0 1.58114 1.58114 0 
128 0 1 0 3.16228 1.58114 0 
129 0 1 0 4.74342 1.58114 0 
130 0 1 0 6.32456 1.58114 0 
131 0 1 0 -7.11512 2.37171 0 
132 0 1 0 -5.53399 2.37171 0 
133 0 1 0 -3.95285 2.37171 0 
134 0 1 0 -2.37171 2.37171 0 
135 0 1 0 -0.790569 2.37171 0 
136 0 1 0 0.790569 2.37171 0 
137 0 1 0 2.37171 2.37171 0 
138 0 1 0 3.95285 2.37171 0 
139 0 1 0 5.53399 2.37171 0 
140 0 1 0 7.11512 2.37171 0 
141 0 1 0 -7.90569 3.16228 0 
142 0 1 0 -6.32456 3.16228 0 
143 0 1 0 -4.74342 3.16228 0 
144 0 1 0 -3.16228 3.16228 0 
145 0 1 0 -1.58114 3.16228 0 
146 0 1 0 0 3.16228 0 
147 0 1 0 1.58114 3.16228 0 
148 0 1 0 3.16228 3.16228 0 
149 0 1 0 4.74342 3.16228 0 
150 0 1 0 6.32456 3.16228 0 
151 0 1 0 -7.11512 3.95285 0 
152 0 1 0 -5.53399 3.95285 0 
153 0 1 0 -3.95285 3.95285 0 
154 0 1 0 -2.37171 3.95285 0 
155 0 1 0 -0.790569 3.95285 0 
156 0 1 0 0.790569 3.95285 0 
157 0 1 0 2.37171 3.95285 0 
158 0 1 0 3.95285 3.95285 0 
159 0 1 0 5.53399 3.95285 0 
160 0 1 0 7.11512 3.95285 0 
161 0 1 0 -7.90569 4.74342 0 
162 0 1 0 -6.32456 4.74342 0 
163 0 1 0 -4.74342 4.74342 0 
164 0 1 0 -3.16228 4.74342 0 
165 0 1 0 -1.58114 4.74342 0 
166 0 1 0 0 4.74342 0 
167 0 1 0 1.58114 4.74342 0 
168 0 1 0 3.16228 4.74342 0 
169 0 1 0 4.74342 4.74342 0 
170 0 1 0 6.32456 4.74342 0 
171 0 1 0 -7.11512 5.53399 0 
172 0 1 0 -5.53399 5.53399 0 
173 0 1 0 -3.95285 5.53399 0 
174 0 1 0 -2.37171 5.53399 0 
175 0 1 0 -0.790569 5.53399 0 
176 0 1 0 0.790569 5.53399 0 
177 0 1 0 2.37171 5.53399 0 
178 0 1 0 3.95285 5.53399 0 
179 0 1 0 5.53399 5.53399 0 
180 0 1 0 7.11512 5.53399 0 
181 0 1 0 -7.90569 6.32456 0 
182 0 1 0 -6.32456 6.32456 0 
183 0 1 0 -4.74342 6.32456 0 
184 0 1 0 -3.16228 6.32456 0 
185 0 1 0 -1.58114 6.32456 0 
186 0 1 0 0 6.32456 0 
187 0 1 0 1.58114 6.32456 0 
188 0 1 0 3.16228 6.32456 0 
189 0 1 0 4.74342 6.32456 0 
190 0 1 0 6.32456 6.32456 0 
191 0 2 0 -7.11512 7.11512 0 
192 0 2 0 -5.53399 7.11512 0 
193 0 2 0 -3.95285 7.11512 0 
194 0 2 0 -2.37171 7.11512 0 
195 0 2 0 -0.790569 7.11512 0 
196 0 2 0 0.790569 7.11512 0 
197 0 2 0 2.37171 7.11512 0 
198 0 2 0 3.95285 7.11512 0 
199 0 2 0 5.53399 7.11512 0 
200 0 2 0 7.11512 7.11512 0 
201 0 2 0 -7.90569 7.90569 0 
202 0 2 0 -6.32456 7.90569 0 
203 0 2 0 -4.74342 7.90569 0 
204 0 2 0 -3.16228 7.90569 0 
205 0 2 0 -1.58114 7.90569 0 
206 0 2 0 0 7.90569 0 
207 0 2 0 1.58114 7.90569 0 
208 0 2 0 3.16228 7.90569 0 
209 0 2 0 4.74342 7.90569 0 
210 0 2 0 6.32456 7.90569 0 
211 0 3 0 -7.90569 -7.90569 0 
212 0 3 0 -6.32456 -7.90569 0 
213 0 3 0 -4.74342 -7.90569 0 
214 0 3 0 -3.16228 -7.90569 0 
215 0 3 0 -1.58114 -7.90569 0 
216 0 3 0 0 -7.90569 0 
217 0 3 0 1.58114 -7.90569 0 
218 0 3 0 3.16228 -7.90569 0 
219 0 3 0 4.74342 -7.90569 0 
220 0 3 0 6.32456 -7.90569 0 
221 0 3 0 -7.11512 -7.11512 0 
222 0 3 0 -5.53399 -7.11512 0 
223 0 3 0 -3.95285 -7.11512 0 
224 0 3 0 -2.37171 -7.11512 0 
225 0 3 0 -0.790569 -7.11512 0 
226 0 3 0 0.790569 -7.11512 0 
227 0 3 0 2.37171 -7.11512 0 
228 0 3 0 3.95285 -7.11512 0 
229 0 3 0 5.53399 -7.11512 0 
230 0 3 0 7.11512 -7.11512 0 
231 0 3 0 -7.11512 7.11512 0 
232 0 3 0 -5.53399 7.11512 0 
233 0 3 0 -3.95285 7.11512 0 
234 0 3 0 -2.37171 7.11512 0 
235 0 3 0 -0.790569 7.11512 0 
236 0 3 0 0.790569 7.11512 0 
237 0 3 0 2.37171 7.11512 0 
238 0 3 0 3.95285 7.11512 0 
239 0 3 0 5.53399 7.11512 0 
240 0 3 0 7.11512 7.11512 0 
241 0 3 0 -7.90569 7.90569 0 
242 0 3 0 -6.32456 7.90569 0 
243 0 3 0 -4.74342 7.90569 0 
244 0 3 0 -3.16228 7.90569 0 
245 0 3 0 -1.58114 7.90569 0 
246 0 3 0 0 7.90569 0 
247 0 3 0 1.58114 7.90569 0 
248 0 3 0 3.16228 7.90569 0 
249 0 3 0 4.74342 7.90569 0 
250 0 3 0 6.32456 7.90569 0 

Bonds

1 1 1 211 
2 1 2 212 
3 1 3 213 
4 1 4 214 
5 1 5 215 
6 1 6 216 
7 1 7 217 
8 1 8 218 
9 1 9 219 
10 1 10 220 
11 1 11 221 
12 1 12 222 
13 1 13 223 
14 1 14 224 
15 1 15 225 
16 1 16 226 
17 1 17 227 
18 1 18 228 
19 1 19 229 
20 1 20 230 
21 1 191 231 
22 1 192 232 
23 1 193 233 
24 1 194 234 
25 1 195 235 
26 1 196 236 
27 1 197 237 
28 1 198 238 
29 1 199 239 
30 1 200 240 
31 1 201 241 
32 1 202 242 
33 1 203 243 
34 1 204 244 
35 1 205 245 
36 1 206 246 
37 1 207 247 
38 1 208 248 
39 1 209 249 
40 1 210 250 
