LAMMPS Description

810 atoms
784 bonds
0 angles
0 dihedrals
0 impropers

3 atom types
2 bond types

-5.44228 5.44228 xlo xhi
-5.44228 5.44228 ylo yhi
-5.44228 5.44228 zlo zhi

Masses

1 1 
2 1 
3 1 

Atoms

1 1 1 0 -3.31116 2.15388 -1.78387 
2 1 1 0 -3.07427 2.35215 -0.864373 
3 1 1 0 -2.26969 1.94847 -0.502999 
4 1 1 0 -1.9417 2.70493 0.00797653 
5 1 1 0 -2.58145 3.14091 -0.576432 
6 1 1 0 -3.41956 2.65485 -0.623585 
7 1 1 0 -4.21154 2.68825 -1.18265 
8 1 1 0 -4.88544 2.0211 -1.38676 
9 1 1 0 5.23557 2.35792 -0.892357 
10 1 1 0 -5.00665 3.084 -0.925283 
11 1 1 0 -4.88313 2.13784 -1.09971 
12 1 1 0 5.30057 1.79498 -0.523391 
13 1 1 0 5.36973 1.11822 0.16806 
14 1 1 0 5.1902 2.02062 0.475198 
15 1 1 0 -4.91005 1.87455 1.02694 
16 1 1 0 -5.22458 2.34276 0.237799 
17 1 1 0 -5.347 2.4027 -0.722576 
18 1 1 0 -4.44687 2.5898 -1.03186 
19 1 1 0 -3.50843 2.75114 -1.21678 
20 1 1 0 -3.03877 2.03952 -1.67928 
21 1 1 0 -2.12042 2.30954 -1.83622 
22 1 1 0 -2.25688 2.24649 -2.7945 
23 1 1 0 -1.28849 2.19118 -2.78632 
24 1 1 0 -0.645092 2.86635 -3.05291 
25 1 1 0 -0.840414 3.57498 -3.68584 
26 1 1 0 -1.43322 4.31621 -3.48566 
27 1 1 0 -1.23783 4.38479 -2.53802 
28 1 1 0 -2.09127 4.49484 -2.09034 
29 1 1 0 -1.66251 4.87903 -1.30966 
30 1 1 0 -0.780756 5.15896 -1.01802 
31 1 1 0 0.0128794 5.32208 -1.55135 
32 1 1 0 0.715085 4.6546 -1.50366 
33 1 1 0 1.43415 5.07418 -2.00146 
34 1 1 0 2.19572 4.70873 -2.47828 
35 1 1 0 2.44108 4.85454 -1.55123 
36 1 1 0 1.55846 4.68525 -1.18622 
37 1 1 0 2.00082 4.94596 -0.363264 
38 1 1 0 2.33123 4.04178 -0.244184 
39 1 1 0 1.98074 3.17363 -0.497886 
40 1 1 0 1.27711 3.50973 -1.0748 
41 1 1 0 1.88909 2.92744 -1.55158 
42 1 1 0 2.20847 3.30631 -2.38546 
43 1 1 0 1.94821 3.96583 -3.04743 
44 1 1 0 2.72209 4.44273 -3.3859 
45 1 1 0 2.96079 3.6042 -3.81108 
46 1 1 0 2.81091 2.72113 -4.1834 
47 1 1 0 2.6315 2.60507 -5.12957 
48 1 1 0 3.46677 2.17601 -5.37274 
49 1 1 0 2.7192 1.57093 5.38569 
50 1 1 0 2.22128 1.44655 -4.67576 
51 2 1 0 -5.22528 -4.62019 -1.06898 
52 2 1 0 -4.40749 -4.12397 -1.22986 
53 2 1 0 -3.99868 -4.99301 -1.09369 
54 2 1 0 -3.40858 -4.39393 -1.5772 
55 2 1 0 -2.86106 -4.55404 -0.792679 
56 2 1 0 -2.27621 -5.0719 -1.36773 
57 2 1 0 -2.69601 5.30855 -2.08225 
58 2 1 0 -2.0986 -4.87423 -2.38473 
59 2 1 0 -1.65628 -4.21307 -1.82965 
60 2 1 0 -1.36691 -4.19038 -0.904091 
61 2 1 0 -0.522785 -4.03339 -0.452758 
62 2 1 0 -0.386692 -4.57614 -1.2451 
63 2 1 0 -0.363853 -5.32942 -0.634409 
64 2 1 0 0.0540872 -4.9033 0.130216 
65 2 1 0 -0.439188 -4.14976 -0.22999 
66 2 1 0 0.2771 -3.57171 -0.536081 
67 2 1 0 0.0742907 -4.24307 -1.20619 
68 2 1 0 0.562748 -4.19843 -2.04304 
69 2 1 0 1.38287 -3.70033 -2.18518 
70 2 1 0 1.60703 -3.49397 -1.26427 
71 2 1 0 2.12881 -4.13834 -0.760845 
72 2 1 0 2.82456 -4.81406 -0.745672 
73 2 1 0 2.36554 5.29513 -0.386523 
74 2 1 0 3.3226 5.37683 -0.251391 
75 2 1 0 3.15256 5.1953 -1.18896 
76 2 1 0 2.23634 -5.4337 -0.998872 
77 2 1 0 2.37799 -4.51048 -1.26061 
78 2 1 0 2.1902 -4.42658 -0.31267 
79 2 1 0 2.73923 -3.92113 0.306997 
80 2 1 0 2.39114 -3.02405 0.184624 
81 2 1 0 2.31614 -3.05395 1.15126 
82 2 1 0 2.59935 -2.18408 1.47379 
83 2 1 0 2.43757 -2.82062 2.18762 
84 2 1 0 1.52238 -3.03824 2.42422 
85 2 1 0 0.805763 -2.58104 1.95697 
86 2 1 0 0.165364 -1.87144 1.79188 
87 2 1 0 -0.157646 -1.68874 2.68809 
88 2 1 0 0.784246 -1.69133 2.91989 
89 2 1 0 0.711829 -0.730097 2.81177 
90 2 1 0 0.438326 -0.248028 3.60782 
91 2 1 0 1.20616 -0.791904 3.84348 
92 2 1 0 1.93706 -1.28581 4.24689 
93 2 1 0 2.45642 -2.09671 4.36353 
94 2 1 0 3.1227 -1.45202 4.64875 
95 2 1 0 3.74116 -1.06644 5.28886 
96 2 1 0 3.72197 -1.94737 -5.19012 
97 2 1 0 3.03456 -1.97095 5.01049 
98 2 1 0 3.19314 -2.85974 5.36519 
99 2 1 0 4.07442 -3.2573 -5.44074 
100 2 1 0 4.75648 -3.22265 4.75499 
101 3 1 0 -1.39645 -3.04676 4.99777 
102 3 1 0 -1.13664 -3.11112 4.06543 
103 3 1 0 -0.827551 -2.29987 3.63272 
104 3 1 0 -0.819781 -2.98234 2.94346 
105 3 1 0 -0.106397 -3.63362 3.03186 
106 3 1 0 -0.281451 -4.26655 2.31796 
107 3 1 0 -0.353958 -4.60678 3.22344 
108 3 1 0 0.554744 -4.49888 2.9017 
109 3 1 0 0.725598 -3.8191 3.57223 
110 3 1 0 1.10764 -3.10958 4.11215 
111 3 1 0 0.93448 -2.33513 3.55435 
112 3 1 0 0.451434 -1.62641 3.10126 
113 3 1 0 0.255675 -2.45235 2.63179 
114 3 1 0 0.0605218 -3.1549 1.99208 
115 3 1 0 0.300305 -3.86525 1.3766 
116 3 1 0 0.86957 -4.64713 1.45076 
117 3 1 0 1.49323 -4.43294 2.16215 
118 3 1 0 2.17126 -4.92248 1.6707 
119 3 1 0 3.09535 -4.83637 1.38869 
120 3 1 0 2.89334 -4.28863 0.614045 
121 3 1 0 2.41277 -3.45488 0.735733 
122 3 1 0 2.742 -2.59186 0.439576 
123 3 1 0 3.55164 -2.30014 0.887094 
124 3 1 0 3.45521 -2.419 1.84494 
125 3 1 0 3.84109 -3.03338 2.48878 
126 3 1 0 2.96043 -3.03548 2.89539 
127 3 1 0 2.49055 -3.8165 3.22724 
128 3 1 0 1.79263 -4.43993 2.97201 
129 3 1 0 1.51084 -5.36805 2.96199 
130 3 1 0 1.44827 4.55993 3.11004 
131 3 1 0 0.821967 3.82133 3.16589 
132 3 1 0 0.577565 4.55265 2.57738 
133 3 1 0 -0.0365607 4.15197 1.9424 
134 3 1 0 0.153844 4.75027 1.20302 
135 3 1 0 0.613948 5.40464 1.75165 
136 3 1 0 1.5815 5.34924 1.71078 
137 3 1 0 1.49171 5.06003 0.789262 
138 3 1 0 1.59254 5.32835 -0.137419 
139 3 1 0 1.96647 -4.66161 -0.109698 
140 3 1 0 2.89521 -4.42665 -0.261803 
141 3 1 0 2.92326 -3.47003 -0.103727 
142 3 1 0 3.05039 -2.76461 0.549819 
143 3 1 0 2.9583 -3.44385 1.23616 
144 3 1 0 2.77863 -2.98536 2.07186 
145 3 1 0 3.088 -2.74282 2.95863 
146 3 1 0 2.15921 -3.02234 2.94753 
147 3 1 0 1.79591 -3.91443 3.06194 
148 3 1 0 1.19639 -4.47484 3.57905 
149 3 1 0 1.05337 -5.39489 3.3071 
150 3 1 0 0.584892 -4.84859 2.65674 
151 4 1 0 2.38607 3.94319 -2.88569 
152 4 1 0 2.74307 3.04251 -2.83861 
153 4 1 0 2.87127 2.11054 -3.07504 
154 4 1 0 2.66014 1.68433 -3.92042 
155 4 1 0 2.98112 0.943618 -4.4582 
156 4 1 0 2.08683 0.701792 -4.17069 
157 4 1 0 2.44607 1.0774 -3.35169 
158 4 1 0 3.41463 1.11786 -3.3177 
159 4 1 0 3.14441 0.663295 -4.13087 
160 4 1 0 3.67408 0.293365 -4.85441 
161 4 1 0 3.71386 1.03995 5.41215 
162 4 1 0 2.74722 1.0195 5.33415 
163 4 1 0 1.89607 1.46771 5.20944 
164 4 1 0 1.38905 0.841632 -5.13489 
165 4 1 0 1.09082 0.215754 5.07127 
166 4 1 0 0.524296 -0.00191729 4.31459 
167 4 1 0 0.193519 -0.0927714 3.40727 
168 4 1 0 -0.2893 -0.0908215 2.56597 
169 4 1 0 -0.584008 -0.954888 2.23819 
170 4 1 0 -0.8219 -1.86648 2.46907 
171 4 1 0 -1.73502 -1.68239 2.19847 
172 4 1 0 -1.75031 -0.75879 1.90245 
173 4 1 0 -1.18161 -0.700067 1.11884 
174 4 1 0 -1.39499 -1.46061 0.555859 
175 4 1 0 -2.24184 -1.01802 0.722761 
176 4 1 0 -2.00478 -0.177901 1.14574 
177 4 1 0 -2.3013 -0.563029 1.98518 
178 4 1 0 -2.98809 -0.0328723 2.41894 
179 4 1 0 -2.5895 0.141038 3.28599 
180 4 1 0 -2.21432 -0.318458 4.05345 
181 4 1 0 -2.6441 0.446534 4.46695 
182 4 1 0 -2.68646 1.39961 4.64232 
183 4 1 0 -3.34446 1.34885 3.93143 
184 4 1 0 -3.25014 1.87704 3.12333 
185 4 1 0 -2.30486 1.80563 2.91777 
186 4 1 0 -1.53705 1.40019 2.48536 
187 4 1 0 -1.99635 0.714188 2.99461 
188 4 1 0 -2.14022 0.198499 3.80348 
189 4 1 0 -2.50256 0.910226 4.35399 
190 4 1 0 -2.77957 1.16956 5.24668 
191 4 1 0 -3.51228 1.56007 -5.13634 
192 4 1 0 -4.21931 1.21701 -4.56773 
193 4 1 0 -4.9742 1.09905 -5.16534 
194 4 1 0 -5.16636 1.02217 4.77156 
195 4 1 0 4.75429 0.918375 4.8032 
196 4 1 0 5.23503 0.0820412 4.70151 
197 4 1 0 4.28453 -0.00733683 4.52985 
198 4 1 0 4.0796 0.898683 4.80919 
199 4 1 0 3.20456 0.800873 4.40222 
200 4 1 0 2.76299 0.671349 5.25612 
201 5 1 0 -4.82853 2.17725 -0.824079 
202 5 1 0 5.18074 2.17201 -1.24209 
203 5 1 0 -4.96415 1.5483 -1.31114 
204 5 1 0 -5.26892 0.999244 -0.571846 
205 5 1 0 4.81724 1.06464 -1.11881 
206 5 1 0 4.15697 1.16036 -0.414694 
207 5 1 0 4.36514 1.9014 0.175587 
208 5 1 0 5.17394 1.50888 0.539823 
209 5 1 0 -4.78627 1.27267 0.714967 
210 5 1 0 -5.07524 0.442444 0.304947 
211 5 1 0 5.32022 0.197945 1.10613 
212 5 1 0 -5.14768 -0.383125 0.450659 
213 5 1 0 -5.18935 -1.27557 0.0728882 
214 5 1 0 -4.93546 -2.16044 0.378572 
215 5 1 0 -4.29858 -1.90492 1.06414 
216 5 1 0 -3.47645 -2.41194 1.15318 
217 5 1 0 -3.28254 -1.87203 0.371001 
218 5 1 0 -2.51464 -2.20735 -0.117662 
219 5 1 0 -1.64219 -1.79577 -0.219309 
220 5 1 0 -0.732995 -1.94473 0.0841286 
221 5 1 0 -1.11236 -1.90075 0.975782 
222 5 1 0 -1.16558 -1.22892 1.67343 
223 5 1 0 -1.4234 -0.442909 2.18001 
224 5 1 0 -1.31752 0.204115 1.46513 
225 5 1 0 -0.366614 0.351925 1.34337 
226 5 1 0 0.399438 -0.132475 0.997797 
227 5 1 0 -0.410296 -0.458663 0.574912 
228 5 1 0 -0.301816 0.119093 -0.196664 
229 5 1 0 -1.23137 0.185315 0.0724833 
230 5 1 0 -1.07459 0.288337 -0.879203 
231 5 1 0 -1.6067 1.02746 -1.21306 
232 5 1 0 -1.6808 1.34583 -0.299798 
233 5 1 0 -0.860282 0.828515 -0.293859 
234 5 1 0 0.0869378 1.00634 -0.184067 
235 5 1 0 0.193878 0.114745 0.182713 
236 5 1 0 0.729939 -0.632823 -0.12499 
237 5 1 0 1.6305 -0.658955 -0.484444 
238 5 1 0 2.45832 -0.916144 -0.0491566 
239 5 1 0 3.14526 -0.914055 0.635677 
240 5 1 0 4.09586 -1.00624 0.805278 
241 5 1 0 3.96156 -0.64704 -0.0856968 
242 5 1 0 3.23135 -0.0104145 -0.0366869 
243 5 1 0 3.51362 -0.355623 0.824737 
244 5 1 0 3.04979 -0.485158 1.66674 
245 5 1 0 3.12524 0.33575 2.17793 
246 5 1 0 2.73974 -0.309829 2.79073 
247 5 1 0 2.64457 -1.11519 3.32293 
248 5 1 0 2.00004 -1.83845 3.27413 
249 5 1 0 2.04721 -2.77769 3.51182 
250 5 1 0 1.85303 -3.69816 3.27533 
251 6 1 0 0.617548 -4.75456 4.55692 
252 6 1 0 0.887337 5.24782 4.25715 
253 6 1 0 1.60698 5.35585 3.61579 
254 6 1 0 2.17082 4.69046 4.04035 
255 6 1 0 2.21667 4.54329 4.99802 
256 6 1 0 1.31746 4.76187 4.70727 
257 6 1 0 1.52049 4.58881 3.77467 
258 6 1 0 1.23468 4.02271 3.04069 
259 6 1 0 1.04302 4.96875 2.94495 
260 6 1 0 0.283978 4.55968 3.38926 
261 6 1 0 0.940761 4.61328 4.10107 
262 6 1 0 0.640908 4.80783 5.00281 
263 6 1 0 -0.274722 4.71949 5.31057 
264 6 1 0 -0.481879 3.81349 -5.29622 
265 6 1 0 0.230302 4.46605 -5.38493 
266 6 1 0 -0.0208139 4.71799 4.59721 
267 6 1 0 -0.319527 5.29444 3.87654 
268 6 1 0 -0.504124 -4.71207 3.50797 
269 6 1 0 0.342851 -4.72403 3.98061 
270 6 1 0 -0.3879 -5.17406 4.43269 
271 6 1 0 -0.881923 4.87712 4.38456 
272 6 1 0 -1.03518 5.41168 5.17933 
273 6 1 0 -0.636053 -4.58964 5.21779 
274 6 1 0 -0.0576051 -4.59275 4.43915 
275 6 1 0 0.633033 -5.08934 3.97298 
276 6 1 0 -0.130025 -4.93432 3.39452 
277 6 1 0 -0.472925 -5.34984 2.58789 
278 6 1 0 -0.563043 4.56938 2.55826 
279 6 1 0 -0.914641 3.76268 2.96633 
280 6 1 0 -0.739797 3.3007 3.80113 
281 6 1 0 -1.39427 3.99801 3.9634 
282 6 1 0 -0.616442 3.99044 4.54291 
283 6 1 0 -0.347195 3.22735 4.00804 
284 6 1 0 0.376787 2.69915 4.37919 
285 6 1 0 0.8217 1.85807 4.1907 
286 6 1 0 -0.141524 1.82623 4.08076 
287 6 1 0 -0.0898955 1.95848 5.04032 
288 6 1 0 0.296508 1.50839 -5.07677 
289 6 1 0 0.626408 0.835497 5.19194 
290 6 1 0 1.33319 0.684475 4.54498 
291 6 1 0 1.32736 1.65444 4.53863 
292 6 1 0 1.27863 2.60818 4.36866 
293 6 1 0 0.642783 3.12447 4.88832 
294 6 1 0 0.360027 4.0516 4.85127 
295 6 1 0 1.20566 3.95722 4.38554 
296 6 1 0 0.864991 4.02262 3.47969 
297 6 1 0 -0.00518537 3.72587 3.17045 
298 6 1 0 0.200768 2.89073 2.72208 
299 6 1 0 -0.256757 2.1035 3.05649 
300 6 1 0 -0.97972 1.8286 3.64186 
301 7 1 0 -4.17798 -2.93468 -5.13726 
302 7 1 0 -4.57163 -3.34001 4.95886 
303 7 1 0 5.41408 -3.18281 5.28789 
304 7 1 0 -4.60667 -3.01856 -5.1871 
305 7 1 0 -4.95883 -2.54142 -4.4195 
306 7 1 0 5.19048 -2.62437 -5.04672 
307 7 1 0 -5.38444 -2.42517 4.94044 
308 7 1 0 -5.06323 -3.34035 4.92751 
309 7 1 0 -4.44857 -3.98089 5.3184 
310 7 1 0 -4.97496 -4.30237 -4.81753 
311 7 1 0 -5.19686 -3.54984 -4.24712 
312 7 1 0 4.9296 -2.97822 -4.44567 
313 7 1 0 -5.04765 -2.68109 -4.27421 
314 7 1 0 5.22649 -1.93971 -4.13771 
315 7 1 0 4.48871 -1.33749 -4.32186 
316 7 1 0 4.43373 -0.489805 -4.79016 
317 7 1 0 4.11934 0.421699 -4.68424 
318 7 1 0 3.4711 -0.238937 -4.39399 
319 7 1 0 3.0682 -0.4519 -5.25027 
320 7 1 0 3.68047 -1.19455 -5.37067 
321 7 1 0 2.76587 -1.46586 5.33837 
322 7 1 0 3.17193 -2.14132 4.77289 
323 7 1 0 4.11382 -1.90955 4.76936 
324 7 1 0 3.50543 -1.15859 4.85192 
325 7 1 0 3.06223 -0.838586 -5.23136 
326 7 1 0 3.11478 -1.67705 -4.74646 
327 7 1 0 2.27653 -1.58914 -4.26634 
328 7 1 0 1.71508 -2.13458 -3.69348 
329 7 1 0 2.19017 -2.92723 -3.98829 
330 7 1 0 2.90566 -2.27896 -3.8949 
331 7 1 0 3.18102 -1.99137 -4.77942 
332 7 1 0 3.87184 -2.62068 -5.0395 
333 7 1 0 4.44521 -1.96707 5.41502 
334 7 1 0 3.99975 -1.8006 4.56959 
335 7 1 0 4.65691 -2.25985 4.02357 
336 7 1 0 5.12454 -1.76089 4.71151 
337 7 1 0 -5.2522 -1.44947 -5.40753 
338 7 1 0 -5.29904 -2.41623 5.41319 
339 7 1 0 -5.11662 -1.50797 5.12562 
340 7 1 0 5.38901 -0.671418 4.8134 
341 7 1 0 4.67342 -0.707055 -5.41729 
342 7 1 0 4.25038 -1.17884 -4.68288 
343 7 1 0 4.75169 -1.99018 -4.85984 
344 7 1 0 -5.35125 -1.5121 -4.54142 
345 7 1 0 -4.58073 -1.39101 -3.96475 
346 7 1 0 -4.18401 -0.506069 -3.98422 
347 7 1 0 -4.95832 -0.389424 -4.55669 
348 7 1 0 5.39149 0.117936 -3.9262 
349 7 1 0 4.7035 0.720825 -3.60355 
350 7 1 0 5.12784 0.439135 -2.77803 
351 8 1 0 3.41446 3.37969 -4.1584 
352 8 1 0 4.28796 3.71247 -3.89926 
353 8 1 0 4.56647 2.86933 -4.28969 
354 8 1 0 4.06031 2.04215 -4.2677 
355 8 1 0 4.97996 1.96114 -3.97004 
356 8 1 0 4.8707 2.36755 -3.09609 
357 8 1 0 4.67403 1.43604 -2.91033 
358 8 1 0 4.98261 1.92139 -2.12924 
359 8 1 0 5.19863 0.976934 -2.08185 
360 8 1 0 5.41282 0.343729 -2.78476 
361 8 1 0 4.57789 0.585422 -3.21531 
362 8 1 0 4.58656 1.26789 -2.52606 
363 8 1 0 4.63509 1.89141 -1.7846 
364 8 1 0 5.14652 2.55421 -1.29467 
365 8 1 0 4.89038 2.787 -0.388523 
366 8 1 0 -5.43679 3.55842 -0.201111 
367 8 1 0 4.98386 4.35501 -0.503005 
368 8 1 0 4.72815 3.45984 -0.230614 
369 8 1 0 4.9377 2.9169 0.545404 
370 8 1 0 4.07642 2.78609 0.971991 
371 8 1 0 3.97995 3.48481 1.63786 
372 8 1 0 4.26408 3.78761 0.761224 
373 8 1 0 5.06608 3.24643 0.691898 
374 8 1 0 4.4632 3.12726 -0.0585912 
375 8 1 0 4.44134 4.03492 -0.400023 
376 8 1 0 3.61807 4.40936 -0.0494227 
377 8 1 0 3.6877 5.37608 -0.0107841 
378 8 1 0 3.84959 -4.89327 -0.743045 
379 8 1 0 3.64693 -4.17091 -0.128216 
380 8 1 0 3.14499 -3.78986 0.609183 
381 8 1 0 3.2782 -2.83807 0.740508 
382 8 1 0 3.96789 -2.35567 1.22271 
383 8 1 0 4.78929 -2.11191 1.67744 
384 8 1 0 -5.15209 -1.89348 1.61754 
385 8 1 0 -5.0738 -1.71253 0.667789 
386 8 1 0 -4.14916 -1.52042 0.889195 
387 8 1 0 -3.6105 -1.08036 0.21311 
388 8 1 0 -4.03852 -0.340314 -0.245183 
389 8 1 0 -4.75997 -0.436725 0.396002 
390 8 1 0 -4.22126 0.116693 0.982874 
391 8 1 0 -5.09778 0.142902 1.39751 
392 8 1 0 -5.03568 0.95846 1.91896 
393 8 1 0 5.21197 1.61901 2.23345 
394 8 1 0 4.67022 2.20493 2.78491 
395 8 1 0 4.19247 2.8534 3.3254 
396 8 1 0 4.6348 2.96692 4.18118 
397 8 1 0 -5.33024 3.14202 4.43557 
398 8 1 0 5.12775 3.74078 5.06836 
399 8 1 0 -5.01379 4.15148 4.59916 
400 8 1 0 -4.41834 3.54602 5.06794 
401 9 2 0 -1.515 -3.60381 3.45786 
402 9 2 0 -0.721549 -4.25883 4.01489 
403 9 2 0 -0.743224 -5.0194 3.12609 
404 9 2 0 -0.321668 -4.05749 2.61042 
405 9 2 0 0.539935 -3.3635 2.22974 
406 9 2 0 0.999465 -4.06245 1.4117 
407 9 2 0 0.313045 -5.00507 1.31575 
408 9 2 0 -0.468242 5.13296 0.867225 
409 9 2 0 -1.60114 4.90511 1.05031 
410 9 2 0 -2.30428 5.31856 1.88909 
411 9 2 0 -1.86423 4.51547 2.61731 
412 9 2 0 -0.748357 4.85492 2.52509 
413 9 2 0 -0.393741 4.90914 3.63874 
414 9 2 0 -0.990292 3.91427 3.79129 
415 9 2 0 0.101031 3.60666 4.07989 
416 9 2 0 -0.309474 2.51532 3.98312 
417 9 2 0 -0.35608 1.72218 4.842 
418 9 2 0 -1.44204 2.15668 4.87023 
419 9 2 0 -2.6047 2.03076 4.83455 
420 9 2 0 -3.0067 3.07398 5.17951 
421 9 2 0 -3.42097 2.98774 4.08871 
422 9 2 0 -4.5022 3.31838 4.38956 
423 9 2 0 -4.1172 4.40054 4.61229 
424 9 2 0 -4.03709 4.50247 -5.10948 
425 9 2 0 -4.41625 3.4558 5.41505 
426 9 2 0 -5.43692 3.43987 -4.89777 
427 9 2 0 4.68182 4.28675 -5.15307 
428 9 2 0 3.55535 4.59905 -5.20246 
429 9 2 0 3.07886 -5.28576 5.30482 
430 9 2 0 2.93459 -4.51122 4.43985 
431 9 2 0 2.83664 5.28325 4.02635 
432 9 2 0 2.11149 -5.00445 3.32862 
433 9 2 0 1.59571 -3.98845 3.06292 
434 9 2 0 1.1077 -3.28237 2.26781 
435 9 2 0 1.20819 -2.31546 1.61674 
436 9 2 0 1.4866 -2.6956 0.545813 
437 9 2 0 1.43528 -3.17645 -0.519575 
438 9 2 0 1.884 -3.44453 -1.56632 
439 9 2 0 2.11956 -4.58156 -1.7098 
440 9 2 0 1.83982 5.34186 -2.31547 
441 9 2 0 1.59481 -5.0281 -3.33726 
442 9 2 0 1.687 4.7056 -3.14778 
443 9 2 0 2.0907 -5.08104 -3.12586 
444 9 2 0 3.02907 -5.06312 -3.82446 
445 9 2 0 4.18254 -4.94196 -3.97852 
446 9 2 0 5.30799 -5.23546 -3.85153 
447 9 2 0 -4.76042 5.31444 -4.62015 
448 9 2 0 -3.99004 -4.85592 -4.10506 
449 9 2 0 -4.25226 -5.39228 -3.09885 
450 9 2 0 -3.74774 4.50959 -2.71329 
451 10 2 0 -4.2209 4.91624 2.41969 
452 10 2 0 -3.06851 5.00639 2.23865 
453 10 2 0 -2.65187 3.9423 2.4897 
454 10 2 0 -3.35776 4.12569 3.40457 
455 10 2 0 -2.5535 4.9746 3.36687 
456 10 2 0 -2.49915 -5.08435 4.19409 
457 10 2 0 -3.4299 -4.37676 4.23786 
458 10 2 0 -4.30077 -4.1868 3.47997 
459 10 2 0 -4.92124 -3.89483 4.42795 
460 10 2 0 -4.2759 -3.94274 5.40271 
461 10 2 0 -3.40295 -4.49788 4.8562 
462 10 2 0 -2.55997 -3.8184 5.2996 
463 10 2 0 -2.39285 -4.82042 -5.00451 
464 10 2 0 -3.54672 -4.66508 -5.12007 
465 10 2 0 -3.56263 -4.10561 -4.09262 
466 10 2 0 -4.36688 -3.93851 -3.25945 
467 10 2 0 -5.3544 -3.79617 -3.87055 
468 10 2 0 4.66397 -4.58263 -3.86065 
469 10 2 0 -5.07911 -4.83841 -3.83818 
470 10 2 0 -4.94215 5.19962 -4.63412 
471 10 2 0 -5.07818 5.31112 5.09375 
472 10 2 0 -4.99835 -4.41437 4.95567 
473 10 2 0 -5.03634 -3.61608 -5.07439 
474 10 2 0 -4.99654 -3.53656 4.64356 
475 10 2 0 -4.60314 -3.04273 3.65854 
476 10 2 0 -5.07355 -1.99127 3.45348 
477 10 2 0 -4.7537 -0.937787 3.84942 
478 10 2 0 -4.90708 -0.272593 2.89921 
479 10 2 0 4.82934 -0.0515646 2.85686 
480 10 2 0 -4.9649 -0.388338 2.59865 
481 10 2 0 -4.30203 0.555608 2.40254 
482 10 2 0 -3.90937 0.869408 3.45907 
483 10 2 0 -2.74711 0.881103 3.32528 
484 10 2 0 -1.83932 1.27465 3.94974 
485 10 2 0 -1.96355 1.55524 5.07878 
486 10 2 0 -1.38052 1.32415 -4.81808 
487 10 2 0 -2.39204 0.873325 -4.44061 
488 10 2 0 -2.46961 1.243 -3.33326 
489 10 2 0 -3.48774 1.72276 -3.65285 
490 10 2 0 -4.47941 1.65184 -3.03603 
491 10 2 0 -4.38922 0.871594 -2.16887 
492 10 2 0 -5.3618 0.227665 -2.07758 
493 10 2 0 5.01921 -0.628908 -2.69532 
494 10 2 0 -5.13749 -0.993305 -3.53575 
495 10 2 0 4.64356 -0.69133 -3.29088 
496 10 2 0 -5.21174 -0.374879 -2.83332 
497 10 2 0 -4.15808 -0.188669 -2.35999 
498 10 2 0 -4.12361 -1.33401 -2.12354 
499 10 2 0 -5.03852 -2.03226 -2.33398 
500 10 2 0 -5.05298 -2.48949 -1.25712 
501 11 2 0 4.40313 -0.749792 2.57126 
502 11 2 0 5.43351 -0.298094 2.8925 
503 11 2 0 -4.9995 0.29719 1.99215 
504 11 2 0 -3.97573 -0.198975 1.71898 
505 11 2 0 -3.12951 0.597277 1.5819 
506 11 2 0 -4.15301 1.0595 1.91006 
507 11 2 0 -5.0777 0.539114 2.40307 
508 11 2 0 5.19754 1.5266 2.55306 
509 11 2 0 -4.98311 2.10486 3.28723 
510 11 2 0 -3.85644 2.12787 2.97263 
511 11 2 0 -3.78197 2.69226 1.95047 
512 11 2 0 -3.65868 3.32604 0.974755 
513 11 2 0 -2.79769 4.11305 1.06538 
514 11 2 0 -2.30895 5.12931 1.37724 
515 11 2 0 -1.59685 4.73485 2.21761 
516 11 2 0 -1.36774 4.29154 1.15937 
517 11 2 0 -0.625902 4.95196 0.540976 
518 11 2 0 -1.58339 4.77417 -0.10749 
519 11 2 0 -1.09284 3.9346 -0.758172 
520 11 2 0 -0.591501 2.94591 -0.383955 
521 11 2 0 0.241525 3.73534 -0.156435 
522 11 2 0 -0.715899 4.28384 -0.545519 
523 11 2 0 -1.80224 3.99753 -0.872314 
524 11 2 0 -2.336 4.33511 -1.85722 
525 11 2 0 -3.47196 4.23725 -1.59473 
526 11 2 0 -3.61577 3.40502 -0.785025 
527 11 2 0 -3.19498 3.68541 0.270066 
528 11 2 0 -3.15546 2.80491 1.03952 
529 11 2 0 -3.27789 1.74107 0.568195 
530 11 2 0 -2.72995 1.41183 1.54812 
531 11 2 0 -1.69993 1.00108 1.17495 
532 11 2 0 -1.41315 0.984396 0.040761 
533 11 2 0 -0.443055 1.1519 -0.591502 
534 11 2 0 0.648303 1.54408 -0.746506 
535 11 2 0 1.3188 2.40391 -1.17082 
536 11 2 0 1.78295 1.96563 -2.15131 
537 11 2 0 2.34704 1.07848 -1.63783 
538 11 2 0 2.96781 2.06521 -1.73742 
539 11 2 0 3.61626 1.2997 -2.33942 
540 11 2 0 2.96102 1.8577 -3.132 
541 11 2 0 3.57213 1.59669 -4.09497 
542 11 2 0 3.94804 0.779691 -3.34657 
543 11 2 0 3.03275 1.32402 -2.86197 
544 11 2 0 3.06679 1.97305 -1.88909 
545 11 2 0 1.9353 1.98627 -1.59168 
546 11 2 0 1.9584 2.07253 -2.75827 
547 11 2 0 1.75018 1.18294 -3.48914 
548 11 2 0 1.66222 1.90122 -4.40851 
549 11 2 0 1.70304 2.76374 -3.61902 
550 11 2 0 2.55436 3.13209 -2.90594 
551 12 2 0 -2.91357 1.32948 -1.46682 
552 12 2 0 -2.76176 0.169846 -1.43357 
553 12 2 0 -3.44044 -0.53141 -2.07897 
554 12 2 0 -2.58386 -1.2853 -1.82046 
555 12 2 0 -1.95051 -1.85117 -2.62517 
556 12 2 0 -1.61261 -2.6205 -1.81101 
557 12 2 0 -1.89281 -3.75625 -1.78935 
558 12 2 0 -1.74919 -4.91717 -1.81256 
559 12 2 0 -2.59056 5.31198 -2.29365 
560 12 2 0 -3.59372 5.04799 -2.83483 
561 12 2 0 -2.97558 4.22823 -3.3959 
562 12 2 0 -2.97252 4.97633 -4.29547 
563 12 2 0 -3.87209 -5.27196 -3.90198 
564 12 2 0 -3.78148 -4.62402 -4.87196 
565 12 2 0 -4.58422 -3.77573 -4.94188 
566 12 2 0 -5.10377 -2.76765 -4.65421 
567 12 2 0 -4.85834 -2.63346 5.09429 
568 12 2 0 -3.87164 -2.98327 4.57182 
569 12 2 0 -3.44301 -3.38743 3.56096 
570 12 2 0 -2.6848 -3.019 2.74961 
571 12 2 0 -3.67554 -3.11618 2.13488 
572 12 2 0 -3.95761 -1.98231 2.07429 
573 12 2 0 -4.06259 -2.38437 0.980567 
574 12 2 0 -3.54439 -3.42792 0.873908 
575 12 2 0 -4.6232 -3.56089 0.441026 
576 12 2 0 -4.90669 -3.9075 1.52195 
577 12 2 0 -5.25828 -4.70746 0.743901 
578 12 2 0 4.55971 -4.22653 0.738612 
579 12 2 0 5.3335 -4.71315 1.46892 
580 12 2 0 -5.18973 -4.27437 2.49156 
581 12 2 0 4.95963 -4.40572 1.59094 
582 12 2 0 4.00823 -4.12229 2.21014 
583 12 2 0 4.11088 -3.97593 3.36641 
584 12 2 0 4.88011 -4.26007 4.20094 
585 12 2 0 4.2817 -3.82548 5.10754 
586 12 2 0 3.51603 -3.36508 4.3521 
587 12 2 0 3.4114 -2.66804 5.28596 
588 12 2 0 2.81149 -2.43154 -4.62235 
589 12 2 0 1.78289 -2.82358 -5.01881 
590 12 2 0 2.35035 -3.83167 -4.84381 
591 12 2 0 2.17894 -4.79501 -4.20232 
592 12 2 0 1.37672 -4.66195 -5.04354 
593 12 2 0 1.6079 -3.51725 -5.11507 
594 12 2 0 0.591795 -3.81498 5.27171 
595 12 2 0 0.813024 -4.86906 4.81467 
596 12 2 0 0.976365 -4.99031 3.66249 
597 12 2 0 1.70724 -4.16118 4.04626 
598 12 2 0 0.996601 -3.4858 4.6848 
599 12 2 0 1.18837 -2.82016 -5.25687 
600 12 2 0 1.8662 -3.00361 4.69187 
601 13 2 0 -4.51181 2.72879 -4.74648 
602 13 2 0 -4.7327 1.58357 -4.83903 
603 13 2 0 -4.62626 1.52316 4.88196 
604 13 2 0 -4.30584 0.658319 4.16203 
605 13 2 0 -5.3949 0.260424 4.31867 
606 13 2 0 -5.29617 0.302326 3.15359 
607 13 2 0 -5.41368 1.46475 3.09144 
608 13 2 0 4.41748 1.06651 3.4087 
609 13 2 0 4.95972 1.94163 2.85278 
610 13 2 0 3.87179 2.36407 2.76998 
611 13 2 0 4.42592 3.35667 3.04674 
612 13 2 0 4.58359 4.05791 2.12355 
613 13 2 0 4.91188 4.66066 3.07108 
614 13 2 0 -5.035 5.28092 2.74716 
615 13 2 0 -4.42929 -4.87726 2.05841 
616 13 2 0 -3.46861 5.35833 2.21601 
617 13 2 0 -3.99899 -4.83757 1.43285 
618 13 2 0 -3.78934 -5.35826 0.406284 
619 13 2 0 -3.33755 4.99679 -0.534139 
620 13 2 0 -3.90663 4.70858 0.446665 
621 13 2 0 -4.92488 5.02117 -0.0374364 
622 13 2 0 -4.82758 4.38385 -1.01379 
623 13 2 0 -5.24042 3.40538 -0.522809 
624 13 2 0 -5.15017 2.23887 -0.52037 
625 13 2 0 -4.0954 1.85051 -0.845231 
626 13 2 0 -3.09054 2.07056 -1.40267 
627 13 2 0 -2.61034 2.85695 -0.681631 
628 13 2 0 -1.81342 3.70121 -0.536553 
629 13 2 0 -0.823773 3.76649 -1.15723 
630 13 2 0 -0.127762 4.47245 -1.77859 
631 13 2 0 0.272955 -5.42137 -1.30243 
632 13 2 0 -0.236852 4.42572 -1.1218 
633 13 2 0 0.289217 3.57347 -0.516965 
634 13 2 0 0.307204 2.42635 -0.287426 
635 13 2 0 -0.191173 1.55892 -0.89413 
636 13 2 0 0.806292 0.967839 -1.05093 
637 13 2 0 1.31063 1.26911 -0.0391111 
638 13 2 0 0.572081 1.9003 0.612841 
639 13 2 0 0.17765 1.99268 1.71047 
640 13 2 0 -0.901263 1.78347 2.11182 
641 13 2 0 -1.07379 0.928829 1.33161 
642 13 2 0 -2.14336 0.915735 0.857535 
643 13 2 0 -1.82862 -0.179498 0.592386 
644 13 2 0 -0.677407 -0.0124284 0.717657 
645 13 2 0 0.289997 -0.180106 0.0813293 
646 13 2 0 -0.526984 0.34175 -0.573733 
647 13 2 0 -0.0434597 -0.374357 -1.36259 
648 13 2 0 -0.651393 0.208286 -2.1749 
649 13 2 0 -1.47648 -0.537265 -2.53861 
650 13 2 0 -1.90838 0.497099 -2.87395 
651 14 2 0 -3.71878 -2.27275 -4.08712 
652 14 2 0 -3.62572 -1.19124 -3.65057 
653 14 2 0 -4.61459 -0.745653 -4.08931 
654 14 2 0 -5.18475 -0.552465 -3.08607 
655 14 2 0 4.83579 -0.756851 -3.84803 
656 14 2 0 4.68085 -0.464555 -2.72577 
657 14 2 0 4.66466 0.690015 -2.53708 
658 14 2 0 3.84312 1.19032 -3.20316 
659 14 2 0 3.86596 0.42493 -4.08778 
660 14 2 0 2.74548 0.744633 -3.98187 
661 14 2 0 2.2264 1.37433 -3.14345 
662 14 2 0 1.39036 1.93847 -3.73648 
663 14 2 0 2.01561 1.57447 -4.65597 
664 14 2 0 1.50419 0.987206 5.3554 
665 14 2 0 2.65736 0.938179 -5.33759 
666 14 2 0 3.36135 1.07289 -4.41284 
667 14 2 0 3.85891 1.01612 -3.35543 
668 14 2 0 3.13042 1.29318 -2.48282 
669 14 2 0 2.63996 1.91024 -3.34745 
670 14 2 0 1.71901 1.28669 -2.98422 
671 14 2 0 1.16199 0.57433 -2.24181 
672 14 2 0 0.663977 -0.468665 -2.42358 
673 14 2 0 0.551891 -0.171147 -3.54955 
674 14 2 0 0.382127 0.969306 -3.74817 
675 14 2 0 1.51596 1.04044 -3.4684 
676 14 2 0 1.80612 -0.0386251 -3.81527 
677 14 2 0 1.01327 0.494457 -4.49064 
678 14 2 0 1.97158 0.817243 -5.07916 
679 14 2 0 2.25656 -0.313815 -5.17076 
680 14 2 0 3.27762 0.055734 -4.73513 
681 14 2 0 3.03447 1.02391 -5.34539 
682 14 2 0 2.18422 1.70832 5.11781 
683 14 2 0 2.79368 2.42772 4.42505 
684 14 2 0 2.93817 3.45308 3.88038 
685 14 2 0 3.30417 3.43657 4.99154 
686 14 2 0 3.43725 2.29139 4.79211 
687 14 2 0 2.43916 1.70651 4.96711 
688 14 2 0 3.0363 0.826384 -5.42991 
689 14 2 0 4.00194 0.634245 -4.79784 
690 14 2 0 3.4622 1.16785 -3.90742 
691 14 2 0 3.63132 2.24845 -4.32288 
692 14 2 0 2.63856 2.05012 -4.9094 
693 14 2 0 2.74833 1.39274 5.01355 
694 14 2 0 1.76259 1.99264 4.82033 
695 14 2 0 1.86203 1.82657 -4.91036 
696 14 2 0 2.82598 1.19194 -5.10257 
697 14 2 0 3.98775 1.27475 -4.99154 
698 14 2 0 3.89162 2.43665 -4.89324 
699 14 2 0 4.4922 2.59371 4.99959 
700 14 2 0 4.12728 2.81749 3.91072 
701 15 2 0 -2.16021 4.19071 -0.822767 
702 15 2 0 -3.17762 4.73237 -0.621823 
703 15 2 0 -3.01851 4.94922 0.516843 
704 15 2 0 -1.93578 5.38808 0.579989 
705 15 2 0 -1.21095 4.82305 1.30406 
706 15 2 0 -0.266194 4.17659 1.54575 
707 15 2 0 -0.0728135 3.08764 1.16405 
708 15 2 0 -0.535182 3.39839 0.135192 
709 15 2 0 -1.68782 3.21681 0.220977 
710 15 2 0 -2.42424 3.51115 1.08118 
711 15 2 0 -2.03317 3.0571 2.08607 
712 15 2 0 -1.25034 3.85297 1.73584 
713 15 2 0 -1.32805 4.51486 2.69749 
714 15 2 0 -0.854367 -5.41182 3.17391 
715 15 2 0 -0.811802 -5.28898 4.33667 
716 15 2 0 -0.113711 -4.66347 5.03689 
717 15 2 0 -0.869011 -4.21822 -5.07297 
718 15 2 0 -2.03034 -4.27815 -5.2019 
719 15 2 0 -3.17786 -4.10147 -5.05742 
720 15 2 0 -4.21288 -4.5424 -5.3787 
721 15 2 0 -3.3577 -4.63629 4.71294 
722 15 2 0 -3.46484 -5.28083 3.74237 
723 15 2 0 -4.60265 5.42152 3.53965 
724 15 2 0 -4.6843 -4.90482 2.51466 
725 15 2 0 -5.42938 -4.08684 2.13429 
726 15 2 0 -5.30261 -3.57507 1.08982 
727 15 2 0 -4.33728 -4.23292 1.15525 
728 15 2 0 -3.22032 -4.19526 0.808981 
729 15 2 0 -2.0838 -4.4696 0.764923 
730 15 2 0 -1.48882 -4.56324 1.76799 
731 15 2 0 -2.58831 -4.58366 2.1675 
732 15 2 0 -2.91803 -4.87568 3.25143 
733 15 2 0 -3.64353 -4.03843 3.62768 
734 15 2 0 -4.36129 -3.31577 4.20343 
735 15 2 0 -4.50963 -3.1798 5.356 
736 15 2 0 -4.92176 -2.19309 4.88118 
737 15 2 0 -5.10335 -2.03864 3.73572 
738 15 2 0 -4.53966 -3.00673 3.39813 
739 15 2 0 -3.93686 -2.2087 2.79093 
740 15 2 0 -2.83643 -1.86288 2.5951 
741 15 2 0 -1.83918 -1.35304 2.25678 
742 15 2 0 -2.37707 -0.325238 2.40907 
743 15 2 0 -1.3095 0.00362927 2.75699 
744 15 2 0 -0.39767 -0.17406 3.46824 
745 15 2 0 -0.432852 -1.32606 3.66961 
746 15 2 0 -0.51397 -2.44623 3.99757 
747 15 2 0 -0.529349 -2.80638 2.88449 
748 15 2 0 -0.499599 -3.67563 2.10192 
749 15 2 0 -1.31674 -4.25635 2.7052 
750 15 2 0 -1.8747 -4.6815 1.76881 
751 16 2 0 -2.51151 -0.658419 3.56388 
752 16 2 0 -2.37811 -1.64484 2.94901 
753 16 2 0 -1.74604 -1.69554 3.93228 
754 16 2 0 -1.37656 -2.30511 4.86008 
755 16 2 0 -1.84946 -2.05744 -4.98337 
756 16 2 0 -2.61039 -2.26438 5.03687 
757 16 2 0 -3.23961 -1.50355 4.40907 
758 16 2 0 -3.41713 -0.79302 3.49664 
759 16 2 0 -2.42196 -0.566859 4.06883 
760 16 2 0 -1.79843 0.229984 3.48133 
761 16 2 0 -0.774207 -0.0457662 3.97513 
762 16 2 0 -1.3421 -0.543461 4.86882 
763 16 2 0 -0.219936 -0.644535 5.18414 
764 16 2 0 0.911869 -0.348676 5.20376 
765 16 2 0 1.79599 -0.448819 -4.92108 
766 16 2 0 2.25631 -1.24571 5.24101 
767 16 2 0 2.62765 -1.40722 -4.54586 
768 16 2 0 2.62306 -1.74423 -3.42546 
769 16 2 0 3.07579 -2.82 -3.50708 
770 16 2 0 1.93323 -2.72951 -3.74215 
771 16 2 0 1.79868 -3.69001 -3.08774 
772 16 2 0 1.51508 -4.06575 -4.15886 
773 16 2 0 1.0007 -4.98331 -4.6711 
774 16 2 0 0.105296 -4.37175 -4.23162 
775 16 2 0 0.178853 -5.13037 -3.34394 
776 16 2 0 1.00855 4.93818 -3.22307 
777 16 2 0 0.250929 -5.09438 -2.9604 
778 16 2 0 1.25112 -4.49755 -2.84945 
779 16 2 0 1.88988 -5.41818 -2.5128 
780 16 2 0 1.75687 4.81836 -1.54778 
781 16 2 0 1.14935 -5.21844 -2.07797 
782 16 2 0 0.279825 -4.51904 -1.72632 
783 16 2 0 -0.349985 -3.88898 -0.967858 
784 16 2 0 -0.561295 -2.80744 -1.36094 
785 16 2 0 -1.48522 -2.11457 -1.54857 
786 16 2 0 -2.45287 -2.44634 -2.11644 
787 16 2 0 -1.81511 -3.39808 -1.87907 
788 16 2 0 -0.691228 -3.10261 -1.74311 
789 16 2 0 -0.120468 -3.8276 -1.02372 
790 16 2 0 0.184312 -4.51198 -0.12504 
791 16 2 0 0.374663 5.2187 -0.0900581 
792 16 2 0 1.3194 -5.21831 0.435369 
793 16 2 0 1.31849 -5.12506 1.60165 
794 16 2 0 1.12572 -3.98576 1.41797 
795 16 2 0 -0.0232123 -4.16763 1.54355 
796 16 2 0 -0.989613 -4.7331 1.20413 
797 16 2 0 -1.16064 -3.78647 0.538153 
798 16 2 0 -0.91022 -3.44958 -0.553955 
799 16 2 0 -0.230612 -3.62272 -1.49047 
800 16 2 0 0.0480771 -3.62613 -2.62679 
801 17 3 0 -1.34903 -0.68158 -4.74541 
802 18 3 0 -4.81348 4.76574 -1.66346 
803 19 3 0 4.6638 4.67653 0.9115 